formula,Property band_gap,Property band_gap units,Property SMILES
SbPd$_{2}$,0.017000000000000348,eV/atom,
ZnH$_{2}$SeO$_{4}$,4.339899999999999,eV/atom,
Ag$_{10}$Te$_{4}$Br$_{3}$,0.7275999999999998,eV/atom,
Li$_{2}$Ca$_{3}$Be$_{3}$Si$_{3}$(O$_{6}$F)$_{2}$,5.7347,eV/atom,
Ag$_{2}$PdCl$_{4}$,1.1217000000000001,eV/atom,
Na$_{3}$BiO$_{3}$,2.8361,eV/atom,
Na$_{3}$GdBr$_{6}$,2.1856999999999998,eV/atom,
SmSb,0.0,eV/atom,
KBi$_{6}$IO$_{9}$,2.2881000000000005,eV/atom,
CsCdAuS$_{2}$,2.0699,eV/atom,
Kr,7.1815999999999995,eV/atom,[Kr]
KZrCuS$_{3}$,0.5924999999999998,eV/atom,
Na$_{3}$B$_{6}$PO$_{13}$,4.7576,eV/atom,
U$_{3}$NbSb$_{5}$,0.0,eV/atom,
V$_{2}$Co(HO$_{2}$)$_{4}$,2.051,eV/atom,
Na$_{2}$Ti$_{3}$Cl$_{8}$,0.4333999999999998,eV/atom,
CdI$_{2}$,2.3627,eV/atom,
NdCoGe$_{2}$,0.0,eV/atom,
HoCo(BO$_{2}$)$_{5}$,3.1169000000000002,eV/atom,
PdAu$_{3}$,0.0,eV/atom,
Sr(AlS$_{2}$)$_{2}$,3.8785,eV/atom,
Rb$_{2}$Mo$_{15}$S$_{19}$,0.0,eV/atom,
ZrGeSe,0.0,eV/atom,
Sr$_{2}$B$_{5}$H$_{2}$O$_{11}$,0.9298,eV/atom,
Ta$_{4}$SiTe$_{4}$,0.02859999999999996,eV/atom,
LuMnO$_{3}$,0.3985999999999996,eV/atom,
Sc$_{3}$FeC$_{4}$,0.0,eV/atom,
GeP$_{2}$O$_{7}$,3.8284,eV/atom,
ScSiAu,0.0,eV/atom,
La$_{3}$W(ClO$_{2}$)$_{3}$,3.5961,eV/atom,
ScAg(PS$_{3}$)$_{2}$,2.0296,eV/atom,
KFe(MoO$_{4}$)$_{2}$,2.4579,eV/atom,
KCu$_{2}$H$_{2}$(SeO$_{5}$)$_{2}$,0.0,eV/atom,
Bi$_{3}$BrO$_{4}$,2.3158,eV/atom,
Pd$_{2}$O,0.0,eV/atom,
Sn$_{3}$Pd,0.0,eV/atom,
LiNdGeO$_{4}$,4.058400000000001,eV/atom,
V$_{3}$P$_{2}$H$_{12}$C$_{3}$N$_{2}$O$_{15}$,0.0,eV/atom,
SmAsPd,0.0,eV/atom,
Ca$_{5}$(SiN$_{3}$)$_{2}$,2.4590999999999994,eV/atom,
InRh$_{3}$PbS$_{2}$,0.0,eV/atom,
LiGaI$_{3}$,2.2473,eV/atom,
Sb$_{3}$C$_{2}$N(OF$_{8}$)$_{2}$,3.9607,eV/atom,
NaFe$_{4}$(MoO$_{4}$)$_{5}$,1.3009000000000002,eV/atom,
SrEu$_{2}$Fe$_{2}$O$_{7}$,0.0,eV/atom,
KSm$_{2}$Sb$_{3}$Se$_{8}$,0.5093999999999999,eV/atom,
Ba$_{3}$ErRu$_{2}$O$_{9}$,0.0,eV/atom,
Y$_{2}$(MoO$_{4}$)$_{3}$,3.9229000000000003,eV/atom,
PWO$_{5}$,0.0,eV/atom,
PrB$_{2}$ClO$_{4}$,5.0695,eV/atom,
CsVP$_{2}$O$_{7}$,1.8684000000000003,eV/atom,
HfTe$_{3}$O$_{8}$,3.8425999999999996,eV/atom,
Nd(GePd)$_{2}$,0.0,eV/atom,
Rb$_{2}$Pd,0.8564,eV/atom,
NaLa$_{2}$TaO$_{6}$,3.9811999999999994,eV/atom,
CdI$_{2}$,2.341,eV/atom,
Mn$_{2}$Al$_{4}$Si$_{5}$O$_{18}$,3.907,eV/atom,
Ca$_{2}$CuTe$_{4}$(ClO$_{5}$)$_{2}$,0.7174999999999998,eV/atom,
BaZn$_{13}$,0.0,eV/atom,
ZrSnPd,0.02859999999999996,eV/atom,
ThCd$_{3}$,0.0,eV/atom,
YNiGe,0.0,eV/atom,
Fe$_{23}$B$_{6}$,0.0,eV/atom,
PbO,1.4694999999999991,eV/atom,
Ce$_{2}$MgSi$_{2}$,0.0,eV/atom,
Sr$_{3}$(AlP$_{2}$)$_{2}$,1.3371000000000004,eV/atom,
Yb$_{2}$Ge$_{4}$Ru$_{3}$,0.0,eV/atom,
V(SeO$_{3}$)$_{2}$,1.9892,eV/atom,
NaPb$_{2}$IO$_{6}$,2.5926,eV/atom,
Gd$_{2}$B(OF)$_{3}$,2.7369,eV/atom,
V$_{4}$GaSe$_{8}$,0.0,eV/atom,
K$_{29}$NaHg$_{48}$,0.0,eV/atom,
CsTi(PS$_{4}$)$_{2}$,1.3716000000000002,eV/atom,[Ti+4].[Ti+4].[Cs+].[Cs+].O=P([O-])([O-])OP([O-])([O-])=S.O=P(O)(O)OP(=S)(O)O.O=P(O)(O)OP(=S)(O)O.O=P(O)(O)OP(=S)(O)O.O=P(O)(O)OP(=S)(O)O.O=P(O)(O)OP(=S)(O)O.O=P(O)(O)OP(=S)(O)O.O=P(O)(O)OP(=S)(O)O.S=P([S-])([S-])[S-].S=P([S-])([S-])[S-]
ZrSiO$_{4}$,3.8593,eV/atom,
CsBeH$_{3}$,3.2171000000000003,eV/atom,
NaSiBO$_{4}$,5.5023,eV/atom,
Na(SO$_{2}$)$_{2}$,0.08240000000000003,eV/atom,
Na$_{4}$H$_{6}$Ru,2.0361,eV/atom,
Sc$_{2}$Fe$_{3}$Si$_{5}$,0.0,eV/atom,
ErMn$_{2}$,0.0,eV/atom,
Sn$_{2}$Mo,0.0,eV/atom,
Ce$_{2}$ReC$_{2}$,0.0,eV/atom,
CaGeAu,0.0,eV/atom,
BaCdGe,0.0,eV/atom,
TmBi,0.0,eV/atom,
CoP$_{4}$H$_{16}$(NO$_{8}$)$_{2}$,3.3299000000000003,eV/atom,[Co+2].O=P([O-])([O-])OP(=O)(O)O.O=P([O-])([O-])OP(=O)(O)O.O.O.[NH4+].[NH4+]
NaIn,0.0,eV/atom,
Na$_{4}$NO,0.0,eV/atom,
La$_{2}$SiO$_{5}$,4.458,eV/atom,
SrP,0.45940000000000003,eV/atom,
SmNbO$_{4}$,3.5614000000000003,eV/atom,
NbSeF$_{9}$,5.045,eV/atom,
TbGe$_{2}$Pt,0.0,eV/atom,
YbH$_{2}$,0.0020000000000000018,eV/atom,
Ba$_{2}$CuTeO$_{6}$,0.0,eV/atom,
KSbO$_{2}$,2.0081999999999995,eV/atom,
Tb$_{4}$CdRh,0.0,eV/atom,
Ba$_{3}$TiS$_{5}$,1.4487,eV/atom,
Bi$_{2}$S$_{2}$O,1.0006999999999993,eV/atom,
Al$_{2}$Te$_{5}$,1.0356,eV/atom,
MnH$_{6}$(CO$_{3}$)$_{2}$,3.4977,eV/atom,
Ta$_{2}$Tl$_{4}$Se$_{11}$,1.1078999999999999,eV/atom,
Rb$_{2}$SeO$_{4}$,3.6361,eV/atom,
H$_{5}$CSO$_{5}$F$_{3}$,6.1345,eV/atom,
BaCaP$_{2}$(HO$_{4}$)$_{2}$,5.327,eV/atom,
VPO$_{5}$,1.9252,eV/atom,
Cu(SbO$_{3}$)$_{2}$,0,eV/atom,
TbMn$_{5}$Ge$_{3}$,0.0,eV/atom,
PrCoSi,0.0,eV/atom,
SrZrO$_{3}$,3.1654,eV/atom,
NiMoP$_{2}$,0.0,eV/atom,
K$_{5}$B$_{19}$O$_{31}$,5.3537,eV/atom,
NbInS$_{2}$,0.0,eV/atom,
Nd(GeAu)$_{2}$,0.0,eV/atom,
Ca$_{3}$Si$_{2}$SnO$_{9}$,3.4383999999999997,eV/atom,
CePd,0.0,eV/atom,
AgPt$_{3}$,0.0,eV/atom,
ThTaN$_{3}$,0.6471999999999998,eV/atom,
SrPrO$_{3}$,0.0,eV/atom,
RbYTe$_{2}$,1.3602000000000003,eV/atom,
TmCuPbSe$_{3}$,1.1235,eV/atom,
MnO,1.6822999999999997,eV/atom,
Y$_{2}$Al$_{3}$Si$_{2}$,0.0,eV/atom,
BaPt$_{2}$S$_{3}$,1.3299999999999996,eV/atom,
NaHO,3.3035,eV/atom,
ScCuO$_{2}$,2.3309,eV/atom,
Y(Al$_{2}$Cu)$_{4}$,0.0,eV/atom,
Zr$_{5}$Re$_{24}$,0.0,eV/atom,
Sr$_{5}$Si$_{3}$,0.0,eV/atom,
Ca$_{2}$AlF$_{7}$,7.1413,eV/atom,
LaZn$_{5}$,0.0,eV/atom,
SrC$_{2}$,1.6718,eV/atom,
Sr$_{2}$CoTeO$_{6}$,1.6176,eV/atom,
LaSe,0.0,eV/atom,
K$_{2}$P$_{2}$O$_{5}$F$_{2}$,5.0435,eV/atom,
LuBO$_{3}$,5.3023,eV/atom,
LiAsSe$_{2}$,0.6960999999999999,eV/atom,
LiMo$_{3}$P$_{3}$O$_{16}$,1.6482999999999999,eV/atom,
Pr$_{7}$Pt$_{3}$,0.0,eV/atom,
TmNi$_{2}$B$_{2}$C,0.0,eV/atom,
Si$_{3}$O$_{7}$,0.10310000000000041,eV/atom,
SrAl$_{2}$B$_{2}$O$_{7}$,4.686,eV/atom,
Na$_{2}$ZnFeF$_{7}$,2.9496,eV/atom,
Na$_{2}$ZnGe,0.0,eV/atom,
Rb$_{4}$Zr$_{3}$Te$_{16}$,1.0575,eV/atom,
TbCd$_{3}$,0.0,eV/atom,
CsMnBi,0.0,eV/atom,
H$_{22}$C$_{10}$O$_{3}$,5.284,eV/atom,
Sr$_{2}$NdCu$_{3}$(PbO$_{4}$)$_{2}$,0.0,eV/atom,
NaPN$_{2}$,4.6812000000000005,eV/atom,
Hf$_{2}$Sb$_{3}$Pd,0.0,eV/atom,
SrMnSbF,0.0,eV/atom,
ScAs,0.0,eV/atom,
K$_{2}$ZnH$_{4}$,4.118,eV/atom,
Rb$_{3}$TiF$_{7}$,3.037,eV/atom,
Ba$_{2}$Mn$_{3}$(SeO$_{3}$)$_{6}$,0.9555999999999998,eV/atom,
KErP$_{2}$S$_{7}$,2.6558,eV/atom,
SiO$_{2}$,5.198,eV/atom,
SrZnSn,0.0,eV/atom,
K$_{3}$Nb$_{3}$(BO$_{6}$)$_{2}$,2.3808000000000002,eV/atom,
SbCNCl$_{6}$,1.9674999999999998,eV/atom,
BaSrO$_{2}$,2.2522,eV/atom,
Sn$_{3}$BrF$_{5}$,3.0281000000000002,eV/atom,
ZrCl$_{2}$,0.0,eV/atom,
Mn$_{23}$C$_{6}$,0.002400000000000624,eV/atom,
TlCuS$_{2}$,0.0,eV/atom,
H$_{6}$Os$_{5}$Pt$_{2}$(CO)$_{17}$,1.7221000000000002,eV/atom,
NaCe(GaSe$_{2}$)$_{4}$,0.0812999999999997,eV/atom,
KMgH$_{3}$,0.0,eV/atom,
RhN$_{2}$,0.0,eV/atom,
BiAsO$_{4}$,3.1586000000000003,eV/atom,
K$_{2}$Ca$_{3}$Si$_{3}$O$_{10}$,4.7468,eV/atom,
Cs$_{3}$Bi$_{2}$,0.0,eV/atom,
PAuClF$_{3}$,3.5272,eV/atom,
Cu$_{2}$BH$_{5}$O$_{6}$,0.04090000000000016,eV/atom,
TbB$_{6}$,0.0,eV/atom,
BaCeO$_{3}$,2.3080000000000003,eV/atom,
BaSi$_{2}$O$_{5}$,4.7566,eV/atom,
YMg$_{7}$,0.0,eV/atom,
BaWO$_{4}$,4.8822,eV/atom,
Pb$_{2}$CO$_{6}$,0.0,eV/atom,
SN,2.3644,eV/atom,
Tm$_{2}$S$_{3}$,1.1833000000000005,eV/atom,
Sr$_{3}$Sc$_{2}$Cu$_{2}$S$_{2}$O$_{5}$,1.6930000000000005,eV/atom,
ZnNi$_{2}$Ge,0.0,eV/atom,
LiBH,0.0,eV/atom,
CaIn$_{4}$Ni,0.0,eV/atom,
SnWO$_{4}$,0.915,eV/atom,
MgCO$_{3}$,5.1935,eV/atom,
PrPO$_{4}$,5.471,eV/atom,
Rb$_{2}$NiH$_{12}$(SeO$_{7}$)$_{2}$,3.6658999999999997,eV/atom,
U$_{4}$Tc$_{7}$Ge$_{6}$,0.0,eV/atom,
Os$_{6}$C$_{17}$S$_{2}$O$_{17}$,1.8011000000000001,eV/atom,
TlPO$_{3}$,3.6020000000000003,eV/atom,
Y(SiRu)$_{2}$,0.0,eV/atom,
BaNb$_{10}$SiO$_{19}$,0.014800000000000146,eV/atom,
Ho(SiIr)$_{2}$,0.0,eV/atom,
HfPd$_{5}$,0.0,eV/atom,
Ba(BrO$_{3}$)$_{2}$,4.1943,eV/atom,
KNdPdO$_{3}$,0.6506000000000003,eV/atom,
Sm$_{3}$InS$_{6}$,0.9908999999999999,eV/atom,
LiIn(MoO$_{4}$)$_{2}$,2.827,eV/atom,
Cs$_{2}$NaHoCl$_{6}$,5.2906,eV/atom,
ZrCo$_{2}$,0.0,eV/atom,
RuF$_{5}$,0.6511000000000002,eV/atom,
Zn(GaNi)$_{3}$,0.0,eV/atom,
BaNaEu(SiO$_{3}$)$_{3}$,0.0024999999999999467,eV/atom,
Li$_{3}$Ga$_{2}$,0.0,eV/atom,
U$_{2}$Zn$_{17}$,0.0,eV/atom,
YbB$_{4}$Os,0.0,eV/atom,
LaMgNi$_{4}$,0.0,eV/atom,
SnH$_{6}$(NF$_{2}$)$_{2}$,5.0716,eV/atom,
AlTlS$_{2}$,2.1718,eV/atom,
KMgPO$_{4}$,4.5953,eV/atom,
Tm$_{2}$CoGe$_{2}$,0.0,eV/atom,
Er(CoSi)$_{2}$,0.0,eV/atom,
Y(CoB)$_{4}$,0.0,eV/atom,
CsSbClF$_{3}$,3.6585,eV/atom,
ZnP$_{2}$(HO$_{3}$)$_{2}$,0.04109999999999969,eV/atom,
In$_{2}$Sn$_{3}$S$_{7}$,0.5128000000000004,eV/atom,
La$_{2}$GeS$_{5}$,1.9676,eV/atom,
Mn$_{2}$CoSn,0.0,eV/atom,
RbGeBiS$_{4}$,1.9799000000000002,eV/atom,
Mo$_{3}$H$_{8}$C$_{4}$SN$_{2}$Cl$_{6}$O$_{7}$,1.1219999999999999,eV/atom,
YbBPt$_{2}$,0.0,eV/atom,
InSiTe$_{3}$,0.45889999999999986,eV/atom,
GaSe,1.2081000000000002,eV/atom,
Ce$_{2}$Pd$_{2}$Pb,0.0,eV/atom,
ScNi$_{2}$SbO$_{6}$,2.6435999999999993,eV/atom,
CeSiOs,0.0,eV/atom,
K$_{5}$CeCu$_{2}$(NO$_{2}$)$_{12}$,0.0,eV/atom,
LuCu(WO$_{4}$)$_{2}$,1.1959999999999997,eV/atom,
PrO$_{2}$,0.0,eV/atom,
BaNd$_{2}$(MoO$_{4}$)$_{4}$,3.4405,eV/atom,
Al$_{2}$Mo$_{3}$C,0.0,eV/atom,
Yb(H$_{2}$N)$_{2}$,2.6036,eV/atom,
NaMn$_{3}$F$_{10}$,1.4189,eV/atom,
MnSbPd,0.0,eV/atom,
CsAu$_{2}$F$_{7}$,1.7706000000000002,eV/atom,
SmPd$_{3}$S$_{4}$,0.0,eV/atom,
Pr$_{5}$Al$_{2}$Ru$_{3}$,0.0,eV/atom,
ZnH$_{3}$CNO$_{3}$,3.519,eV/atom,
GeTeRh,0.2549999999999999,eV/atom,
CsMnF$_{4}$,1.9445999999999999,eV/atom,
V$_{2}$Hg(P$_{2}$O$_{7}$)$_{2}$,1.3438999999999999,eV/atom,
Cs$_{2}$P$_{3}$,0.8419000000000003,eV/atom,
Sr$_{2}$BBrN$_{2}$,2.4109,eV/atom,
YbCu(WO$_{4}$)$_{2}$,0.07479999999999976,eV/atom,
CrFe$_{2}$Sb,0.0,eV/atom,
Na$_{3}$ErV$_{2}$O$_{8}$,3.6248,eV/atom,
Mn$_{3}$TeO$_{6}$,0.7581999999999995,eV/atom,
Sr$_{3}$CdPtO$_{6}$,2.04,eV/atom,
Gd$_{4}$Ga$_{16}$Co$_{3}$,0.0,eV/atom,
Rb$_{2}$NbF$_{6}$,0.21979999999999977,eV/atom,
TaPbSe$_{2}$,0.0,eV/atom,
Er$_{4}$InRh,0.0,eV/atom,
Ba$_{2}$CuClO$_{2}$,2.3029,eV/atom,
BaMn$_{2}$O$_{5}$,0.0,eV/atom,
SiIr,0.0,eV/atom,
Li$_{3}$FeN$_{2}$,0.0,eV/atom,
LiAsF$_{6}$,5.1404,eV/atom,
SbH$_{3}$CSCl$_{6}$O,2.0032,eV/atom,
ZrFeSi,0.0,eV/atom,
Li$_{6}$MgBr$_{8}$,4.6843,eV/atom,
Lu$_{2}$MgSe$_{4}$,1.4769999999999999,eV/atom,
CaF$_{2}$,7.4573,eV/atom,
Tl$_{2}$SiF$_{6}$,4.976,eV/atom,
TbCo$_{3}$B$_{2}$,0.0,eV/atom,
Ni(SbO$_{2}$)$_{2}$,2.0339,eV/atom,
HfGa$_{2}$Ni,0.0,eV/atom,
Rb$_{2}$MgH$_{12}$(SeO$_{7}$)$_{2}$,4.1484,eV/atom,
KClO$_{4}$,5.128,eV/atom,
SrLiAlF$_{6}$,7.1824,eV/atom,
Yb$_{23}$Mg$_{4}$Cu$_{7}$,0.0,eV/atom,
NaAlSi,0.0,eV/atom,
Tb(AlC)$_{3}$,0.0,eV/atom,
Lu(NbCl$_{3}$)$_{6}$,0.13280000000000003,eV/atom,
Dy$_{4}$MgRh,0.0,eV/atom,
Tm$_{2}$Ru$_{2}$O$_{7}$,0.0,eV/atom,
Cs$_{4}$Sc$_{6}$CCl$_{13}$,0.0,eV/atom,
Cs$_{4}$Ta$_{2}$S$_{11}$,1.8065,eV/atom,
YbClF,6.0554,eV/atom,
RbGaCl$_{4}$,4.3998,eV/atom,
RbLu$_{3}$F$_{10}$,6.7502,eV/atom,
Na$_{5}$B(SO$_{4}$)$_{4}$,5.3015,eV/atom,
H$_{4}$CS(NO)$_{2}$,2.9683,eV/atom,O=[NH2+]([O-])C(=S)N
Sc$_{2}$FeSi$_{2}$,0.0,eV/atom,
Bi$_{9}$I$_{2}$,0.0,eV/atom,
ErTlZn,0.0,eV/atom,
DyCd,0.0,eV/atom,
ZrF$_{4}$,4.8934,eV/atom,
LuCuS$_{2}$,1.6961999999999993,eV/atom,
NaTaO$_{3}$,2.3846,eV/atom,
NaGa$_{4}$,0.0,eV/atom,
Ce$_{5}$Ge$_{3}$,0.0,eV/atom,
Ca$_{4}$Al$_{51}$Cr$_{7}$,0.0,eV/atom,
Nd$_{2}$As$_{4}$O$_{9}$,3.367,eV/atom,
Li$_{2}$TeS$_{3}$,0.9701000000000004,eV/atom,
Ni$_{3}$Mo$_{2}$SeO$_{11}$,2.5395999999999996,eV/atom,
As$_{2}$O$_{5}$,1.4032,eV/atom,
V$_{2}$H,0.0,eV/atom,
K$_{2}$Ti$_{2}$(PO$_{4}$)$_{3}$,0.0,eV/atom,
Ti$_{4}$FeS$_{8}$,0,eV/atom,
HoPt$_{2}$,0.0,eV/atom,
Ba$_{2}$ZnWO$_{6}$,3.4060000000000006,eV/atom,
Ca$_{3}$SiO$_{5}$,3.2782999999999998,eV/atom,
ZrAlNi$_{2}$,0.0,eV/atom,
K$_{2}$ZnF$_{4}$,4.3016000000000005,eV/atom,
BiAsPbO$_{5}$,2.2678,eV/atom,
SmCuO$_{2}$,2.502,eV/atom,
K$_{3}$P$_{4}$H$_{5}$O$_{14}$,5.3502,eV/atom,
Rb$_{2}$NaCoF$_{6}$,0.0,eV/atom,
UFeAs$_{2}$,0.0,eV/atom,
TbB$_{12}$,0.0,eV/atom,
Be$_{4}$B,0.0,eV/atom,
SiBi$_{2}$O$_{5}$,2.7077,eV/atom,
Pr$_{9}$O$_{16}$,0.0,eV/atom,
KC,3.2603,eV/atom,
YHSe,1.5080999999999998,eV/atom,
Tb(HO)$_{3}$,3.584,eV/atom,
Ti$_{2}$Bi,0.0,eV/atom,
K$_{3}$Sb$_{5}$O$_{14}$,1.1985000000000001,eV/atom,
As$_{2}$Kr$_{3}$F$_{16}$,1.149,eV/atom,
Ga$_{2}$TeO$_{6}$,0.7341000000000006,eV/atom,
YbP,0.0,eV/atom,
TbCuPb,0.0,eV/atom,
SbH$_{18}$C$_{3}$(NCl$_{2}$)$_{3}$,2.9658,eV/atom,[Cl-].O=[Sb]([O-])([O-])Cl.O=[Sb](Cl)(O)O.O=[Sb](Cl)(O)O.O=[Sb](Cl)(O)O.O=[Sb](Cl)(O)O.C[NH3+].C[NH3+].C[NH3+]
Cs$_{3}$Mo$_{15}$Se$_{17}$,0.0,eV/atom,
Nd(HO)$_{3}$,3.7396000000000003,eV/atom,
CdI$_{2}$,2.3611,eV/atom,
Mn$_{3}$(PO$_{4}$)$_{2}$,3.0006999999999997,eV/atom,
ErBi$_{2}$ClO$_{4}$,1.8499000000000003,eV/atom,
TbGe$_{5}$,0.0,eV/atom,
Ti$_{3}$Te$_{4}$,0.0,eV/atom,
Cs$_{2}$Al$_{2}$B$_{2}$O$_{7}$,4.2435,eV/atom,
Nd$_{2}$Co$_{7}$,0.0,eV/atom,
RbCd$_{13}$,0.0,eV/atom,
K$_{5}$YH$_{8}$(CO$_{2}$)$_{8}$,4.4154,eV/atom,
Sr$_{3}$TaAs$_{3}$O,1.3209999999999997,eV/atom,
Mn$_{2}$PClO$_{4}$,3.1216,eV/atom,
Ba$_{2}$I$_{2}$O,3.1127000000000002,eV/atom,
Th$_{7}$Ni$_{3}$,0.0,eV/atom,
Sr$_{3}$GaSb$_{3}$,0.3397000000000001,eV/atom,
EuNiO$_{3}$,0.0,eV/atom,
Ba$_{3}$CoRu$_{2}$O$_{9}$,0.0,eV/atom,
BaYb$_{2}$NiO$_{5}$,0.0,eV/atom,
RbScAsO$_{4}$F,4.0481,eV/atom,
ErWClO$_{4}$,3.4528,eV/atom,
Ce(NiAs)$_{2}$,0.0,eV/atom,
WO$_{3}$,1.3694000000000002,eV/atom,
Ba$_{2}$TbBiO$_{6}$,1.7187000000000001,eV/atom,
Cu$_{3}$BiSe$_{2}$IO$_{8}$,0.13710000000000022,eV/atom,
BaNa$_{2}$(SiO$_{3}$)$_{2}$,4.174300000000001,eV/atom,
Bi$_{4}$B$_{2}$O$_{9}$,2.8354,eV/atom,
Sr$_{4}$CN$_{4}$,1.2186,eV/atom,
SiAs$_{2}$,0.0,eV/atom,
K(MoSe)$_{3}$,0.0,eV/atom,
V$_{2}$Co$_{3}$O$_{8}$,1.741,eV/atom,
SiO$_{2}$,5.582000000000001,eV/atom,
BaZnCl$_{4}$,4.5948,eV/atom,
Li$_{5}$ReN$_{4}$,2.8473,eV/atom,
Sr$_{10}$P$_{6}$SO$_{24}$,3.5439999999999996,eV/atom,
U(SiAu)$_{2}$,0,eV/atom,
TmCu(BO$_{2}$)$_{5}$,0.7742999999999998,eV/atom,
SiO$_{2}$,4.5099,eV/atom,
NbNiAs,0.014100000000000001,eV/atom,
HfGeOs,0.0,eV/atom,
LiVCuO$_{4}$,0.25970000000000004,eV/atom,
Cs$_{2}$SeCl$_{6}$,2.7535,eV/atom,
CaHg$_{3}$,0.0,eV/atom,
SiO$_{2}$,1.179,eV/atom,
Hf$_{2}$PbC,0.0,eV/atom,
MgCl$_{2}$,4.906000000000001,eV/atom,
Sr$_{6}$CoC$_{2}$N$_{7}$,0.2744,eV/atom,
Si$_{4}$Ir$_{3}$,0.0,eV/atom,
HfOs$_{2}$,0.0,eV/atom,
AlPO$_{4}$,5.4802,eV/atom,
Li$_{3}$YBi$_{2}$,0.0,eV/atom,
Cs$_{5}$Mo$_{21}$Se$_{23}$,0.0,eV/atom,
Tl$_{2}$HPtC$_{5}$N$_{5}$O,3.2976,eV/atom,
U$_{2}$Al$_{20}$Fe,0.0,eV/atom,
KRb$_{2}$NiF$_{6}$,0.0,eV/atom,
Os$_{5}$C$_{17}$O$_{16}$,2.0169,eV/atom,
NaBi,0.0,eV/atom,
La$_{2}$Be$_{2}$GeO$_{7}$,4.114299999999999,eV/atom,
Fe$_{9}$Cu$_{9}$S$_{16}$,0.0,eV/atom,
Y$_{2}$Zn$_{17}$,0.0,eV/atom,
CaSiO$_{3}$,3.4515000000000002,eV/atom,
In$_{6}$WO$_{12}$,1.7721,eV/atom,
AuCl$_{3}$,1.345,eV/atom,
Pr$_{7}$CoI$_{12}$,0.06640000000000024,eV/atom,
Pt(NCl)$_{2}$,0.0,eV/atom,
Sm(CuSn)$_{2}$,0.0,eV/atom,
GaF$_{3}$,4.7051,eV/atom,
As$_{2}$PbO$_{6}$,2.1358,eV/atom,
RbNbAsClO$_{5}$,3.1146000000000003,eV/atom,
Co$_{3}$C$_{10}$ClO$_{9}$,2.1077,eV/atom,
Tb$_{3}$Si$_{2}$Cl$_{5}$O$_{6}$,4.6895999999999995,eV/atom,
AuCl$_{2}$,0.8978999999999999,eV/atom,
BaTi$_{2}$As$_{2}$O,0.0,eV/atom,
KV$_{4}$O$_{8}$,0.0026000000000001577,eV/atom,
HfSbRh,0.0,eV/atom,
SmAsO$_{4}$,3.6891999999999996,eV/atom,
VGaNi$_{2}$,0.0,eV/atom,
SmSi$_{2}$Rh$_{3}$,0.0,eV/atom,
Zr$_{5}$NiSb$_{3}$,0.0,eV/atom,
KP(HO$_{2}$)$_{2}$,5.2602,eV/atom,
PtCl$_{3}$,1.0698,eV/atom,
DyAlAu,0.0,eV/atom,
KCa$_{4}$Si$_{8}$H$_{16}$O$_{29}$,0.9657,eV/atom,
SmCu(MoO$_{4}$)$_{2}$,1.9639,eV/atom,
K$_{5}$As$_{2}$Au,0.34650000000000003,eV/atom,
NdVO$_{3}$,0.02009999999999934,eV/atom,
Y(MnAl$_{2}$)$_{4}$,0.0,eV/atom,
Ca$_{3}$Fe$_{2}$(GeO$_{4}$)$_{3}$,2.3844,eV/atom,
B$_{5}$Pb$_{2}$BrO$_{9}$,3.4053000000000004,eV/atom,
RbTi$_{2}$(PO$_{4}$)$_{3}$,2.6058000000000003,eV/atom,
LiNO$_{3}$,0.0,eV/atom,
ErCo(CN)$_{6}$,4.2943,eV/atom,
LiH$_{8}$C$_{2}$S$_{2}$NO$_{5}$,5.7273,eV/atom,[Li+].O=S(=O)([N-]S(=O)(=O)C)C.O
Se$_{2}$NCl$_{5}$,2.686,eV/atom,
TlV$_{3}$Cu$_{5}$O$_{13}$,0.017900000000000027,eV/atom,
Na$_{5}$GaO$_{4}$,2.2018,eV/atom,
KSbO$_{3}$,1.1347999999999998,eV/atom,
ZnS,2.0318,eV/atom,
Dy(PO$_{3}$)$_{3}$,5.5908,eV/atom,
CsEu(PO$_{3}$)$_{4}$,0.0,eV/atom,[Cs+].[Eu+3].O=P([O-])([O-])OP(=O)([O-])OP(=O)([O-])OP(=O)(O)O
CS$_{2}$NF$_{5}$,2.9184,eV/atom,FS(F)(F)(F)(F)N=C=S
NaYO$_{2}$,4.132999999999999,eV/atom,
Li$_{7}$IN$_{2}$,0.0,eV/atom,
AgCl,0.8727,eV/atom,
LuNiSn$_{2}$,0.0,eV/atom,
MgBr$_{2}$,4.4707,eV/atom,
WS$_{2}$(NCl)$_{3}$,0.8738999999999999,eV/atom,
BPH$_{9}$C$_{2}$,5.6154,eV/atom,
Ce$_{3}$Si$_{2}$S$_{8}$Br,0.0,eV/atom,
Ba$_{7}$Al$_{10}$,0.0,eV/atom,
K$_{2}$Na$_{3}$TlO$_{4}$,1.3295999999999997,eV/atom,
Na$_{15}$Sn$_{4}$,0.0,eV/atom,
Li$_{2}$BPt$_{3}$,0.0,eV/atom,
H$_{12}$Pd(N$_{5}$O$_{4}$)$_{2}$,1.9444,eV/atom,
CeRhPb,0.0,eV/atom,
AuSeBr,0.6295,eV/atom,
RbNa$_{2}$BO$_{3}$,2.9274999999999998,eV/atom,
Ba$_{3}$LaRu$_{2}$O$_{9}$,0.0,eV/atom,
K$_{2}$PrH$_{4}$N$_{5}$O$_{17}$,3.4924999999999997,eV/atom,
Ba$_{4}$Nb$_{2}$(OF$_{4}$)$_{3}$,3.3527,eV/atom,
Na$_{2}$MoSeO$_{6}$,3.6489,eV/atom,
Er$_{2}$C(NO)$_{2}$,4.0097000000000005,eV/atom,
SmNiSn,0.0,eV/atom,
Tb(SiAg)$_{2}$,0.0,eV/atom,
UB$_{4}$Mo,0.0,eV/atom,
LiGa$_{5}$O$_{8}$,2.5222999999999995,eV/atom,
NaEuP$_{2}$O$_{7}$,0.0,eV/atom,
Sm$_{2}$CuO$_{4}$,0.0,eV/atom,
Ba$_{2}$UNiO$_{6}$,1.6326999999999998,eV/atom,
Zr$_{5}$AlSb$_{3}$,0.0,eV/atom,
CeZnNi,0.0,eV/atom,
NiPS,0.0,eV/atom,
SmMgIn,0.0,eV/atom,
ErCo$_{5}$,0.0,eV/atom,
TlPPd$_{5}$,0.0,eV/atom,
TiH$_{2}$N$_{2}$OF$_{4}$,0.0,eV/atom,
Ca$_{3}$FeRhO$_{6}$,1.4702000000000002,eV/atom,
SeCl$_{4}$,3.0467,eV/atom,
Ce$_{2}$SeN$_{2}$,0.8943000000000003,eV/atom,
CsHg,0.0,eV/atom,
Ba$_{2}$CoC$_{2}$(O$_{3}$F)$_{2}$,3.066,eV/atom,
Yb$_{6}$H$_{20}$N$_{8}$O$_{49}$,0.0045000000000001705,eV/atom,
KMgV$_{3}$Cu$_{4}$O$_{13}$,0.0020999999999999908,eV/atom,
LiEu$_{3}$SiCl$_{3}$O$_{4}$,0.37849999999999984,eV/atom,
Ca(GaP)$_{2}$,0.17439999999999944,eV/atom,
KSrPO$_{4}$,5.0889,eV/atom,
PrGa$_{2}$Ni,0.0,eV/atom,
Ge$_{3}$N$_{4}$,1.4131999999999998,eV/atom,
Cd(BiO$_{2}$)$_{2}$,2.7092,eV/atom,
Li$_{2}$B$_{2}$Se$_{5}$,1.6310999999999996,eV/atom,
K$_{2}$H$_{4}$OsO$_{6}$,0.0875999999999999,eV/atom,
Li$_{2}$CaN$_{2}$,0.0,eV/atom,
Th$_{5}$Sn$_{4}$,0.0,eV/atom,
ThMn$_{2}$,0.0,eV/atom,
CdAs$_{2}$HF$_{13}$,3.9677,eV/atom,
LuPb$_{3}$,0.0,eV/atom,
Fe$_{6}$W$_{6}$C,0.0,eV/atom,
Dy$_{3}$ReO$_{7}$,0.0,eV/atom,
Li$_{5}$SbO$_{5}$,2.914,eV/atom,
V$_{2}$Fe$_{3}$(SiO$_{4}$)$_{3}$,0.0,eV/atom,
H$_{2}$O,5.5175,eV/atom,
K$_{2}$Al$_{2}$Sb$_{3}$,0.9634,eV/atom,
ZrMnSi$_{2}$,0.0,eV/atom,
Tc$_{2}$O$_{7}$,2.6664,eV/atom,
VH$_{21}$C$_{7}$N$_{4}$Cl$_{7}$,1.6009,eV/atom,
KPb,0.37349999999999994,eV/atom,
Ba$_{2}$TbReO$_{6}$,0.0,eV/atom,
RhC$_{2}$IO$_{2}$,1.7793,eV/atom,
TiPt$_{8}$,0.0,eV/atom,
ErNiSb,0.2741000000000007,eV/atom,
NdPt$_{5}$,0.0,eV/atom,
Rb$_{2}$Tb$_{3}$AlF$_{16}$,0.0,eV/atom,
Mn$_{7}$PbO$_{12}$,0.0,eV/atom,
PuGa$_{4}$,3.00000000000189E-4,eV/atom,
Mg$_{3}$Mn$_{3}$(BO$_{5}$)$_{2}$,0.0,eV/atom,
CrP$_{3}$H$_{17}$N$_{3}$O$_{13}$,2.7258,eV/atom,
NbO$_{2}$,0.0,eV/atom,
AgH$_{3}$BrN,2.46,eV/atom,
LiH$_{3}$IN,3.8263,eV/atom,
Yb(CoGe)$_{2}$,0.0,eV/atom,
HgS,0.0,eV/atom,
TiMnH$_{12}$(OF)$_{6}$,1.9467999999999999,eV/atom,
SrAl$_{2}$,0.0,eV/atom,
Cu$_{4}$H$_{10}$SO$_{12}$,0.0,eV/atom,
TmAsS,0.33729999999999993,eV/atom,
SiO$_{2}$,5.020300000000001,eV/atom,
CsAuI$_{3}$,0.7272000000000001,eV/atom,
Eu$_{3}$(AsS$_{4}$)$_{2}$,0.15409999999999968,eV/atom,
HoBi$_{2}$IO$_{4}$,1.3910999999999998,eV/atom,
NaO$_{2}$,0.0,eV/atom,
BaCoP$_{2}$O$_{7}$,3.0692,eV/atom,
Cs(MoSe)$_{3}$,0.0,eV/atom,
Li$_{2}$FeGeS$_{4}$,0.0026999999999999247,eV/atom,
LaSb$_{2}$,0.0,eV/atom,
MnZn$_{3}$,0.0,eV/atom,
TmVO$_{3}$,1.6208999999999998,eV/atom,
Pr$_{3}$(BN$_{2}$)$_{2}$,0.0,eV/atom,
Ca$_{5}$(Ga$_{3}$O$_{7}$)$_{2}$,3.0724,eV/atom,[Ca+2].[Ca+2].[Ca+2].[Ca+2].[Ca+2].O=C([O-])C1=CC(O)=C(O)C(O)=C1.O=C([O-])C1=CC(O)=C(O)C(O)=C1.O=C([O-])C1=CC(O)=C(O)C(O)=C1.O=C([O-])C1=CC(O)=C(O)C(O)=C1.O=C([O-])C1=CC(O)=C(O)C(O)=C1.O=C([O-])C1=CC(O)=C(O)C(O)=C1
K$_{3}$Bi(AsSe$_{2}$)$_{6}$,1.3967000000000003,eV/atom,
Sm(NiSn)$_{2}$,0.0,eV/atom,
LaAgSb$_{2}$,0.0,eV/atom,
YbMnO$_{3}$,0.5091000000000001,eV/atom,
Ba$_{3}$V$_{4}$O$_{13}$,2.9455999999999998,eV/atom,
K$_{2}$Sn(H$_{2}$N)$_{6}$,2.404,eV/atom,
Ag$_{2}$S,1.2701,eV/atom,
LiNbF$_{6}$,5.1069,eV/atom,
Y(Ni$_{2}$P)$_{2}$,0.0,eV/atom,
CN$_{2}$,3.715,eV/atom,
Th(NiP)$_{2}$,0.0,eV/atom,
AgSbPbS$_{3}$,0.5549,eV/atom,
TeC$_{4}$(BrF$_{3}$)$_{2}$,2.5884,eV/atom,
NaVCdO$_{4}$,2.6646,eV/atom,
Bi$_{2}$O$_{3}$,1.2294,eV/atom,
YIn$_{2}$Ni,0.0,eV/atom,
SiO$_{2}$,5.5311,eV/atom,