formula,Property band_gap,Property band_gap units,Property SMILES
K$_{9}$Eu$_{3}$Si$_{12}$(O$_{16}$F)$_{2}$,0.0,eV/atom,
Cs$_{2}$Sn(H$_{2}$N)$_{6}$,2.5332,eV/atom,
CrS$_{2}$,0.0,eV/atom,
U$_{3}$Co$_{2}$Si$_{7}$,0.0,eV/atom,
Li$_{2}$U$_{3}$P$_{2}$O$_{15}$,2.2683,eV/atom,
Zr$_{2}$InAu$_{2}$,0.0,eV/atom,
BaV$_{2}$(CuO$_{4}$)$_{2}$,0.15809999999999969,eV/atom,
Rb$_{2}$UCr(IO$_{6}$)$_{2}$,2.1862,eV/atom,
GdBC,0.0,eV/atom,
Sr$_{2}$LuIrO$_{6}$,0.0,eV/atom,
ErCo$_{3}$Si$_{2}$,0.0,eV/atom,
Tm(GeRh)$_{2}$,0.0,eV/atom,
Rb$_{8}$PO$_{3}$,0.0,eV/atom,
NdGe,0.0,eV/atom,
YCI,0.0,eV/atom,
Np(CoSi)$_{2}$,0.0,eV/atom,
YbIn,0.0,eV/atom,
FeWN$_{2}$,0.0,eV/atom,
RbHSeO$_{4}$,3.6169000000000002,eV/atom,
K$_{3}$B(SO$_{4}$)$_{3}$,5.2623,eV/atom,
NdCu(MoO$_{4}$)$_{2}$,2.0772999999999997,eV/atom,
ScSbPd,0.27830000000000066,eV/atom,
NaCl,3.9736000000000002,eV/atom,
Na$_{3}$YH$_{6}$(CO$_{4}$)$_{3}$,4.889,eV/atom,
Pu(SiPd)$_{2}$,0.001900000000000901,eV/atom,
BSBr,3.6628000000000003,eV/atom,
BC$_{2}$N,2.099400000000001,eV/atom,
CeSi$_{3}$N$_{5}$,0.24270000000000103,eV/atom,
Sm$_{4}$Bi$_{3}$,0.0,eV/atom,
Fe$_{2}$B$_{4}$Mo,0.0,eV/atom,
GePd$_{5}$,0.0,eV/atom,
Na$_{2}$TiO$_{3}$,1.3796,eV/atom,
PrPtF$_{7}$,2.4352,eV/atom,
PuI$_{3}$,0.0,eV/atom,
LuBi,0.0,eV/atom,
Ni$_{2}$B,0.0,eV/atom,
Bi$_{4}$RuI$_{2}$,0.45189999999999975,eV/atom,
K$_{2}$MnH$_{2}$OF$_{5}$,1.3384999999999998,eV/atom,
Nb$_{4}$NiP,0.0,eV/atom,
KCa$_{10}$(PO$_{4}$)$_{7}$,5.241,eV/atom,
Na$_{3}$Cr$_{2}$(PS$_{4}$)$_{3}$,1.2925,eV/atom,
KH$_{3}$O$_{2}$,4.3804,eV/atom,
CdBiClO$_{2}$,2.8418,eV/atom,
NdAsO$_{4}$,3.8819999999999997,eV/atom,
Ca$_{3}$PI$_{3}$,2.1548,eV/atom,
K$_{5}$As$_{3}$O$_{10}$,3.057,eV/atom,
RbMnF$_{4}$,2.0352,eV/atom,
Nb$_{3}$Sb$_{2}$Te$_{5}$,0.8441000000000001,eV/atom,
Sr$_{5}$Al$_{2}$F$_{16}$,6.9343,eV/atom,
MnAlF$_{5}$,4.4125000000000005,eV/atom,
MgH$_{24}$C$_{6}$N$_{12}$(ClO$_{6}$)$_{2}$,5.4637,eV/atom,
Mg$_{10}$B$_{16}$Ir$_{19}$,0.0,eV/atom,
In$_{2}$Cl$_{3}$,2.327,eV/atom,
Na$_{2}$MnCrF$_{7}$,2.4625,eV/atom,
H$_{8}$C$_{2}$BrN,4.6619,eV/atom,[Br-].C[NH2+]C
CdHgO$_{2}$,0.36819999999999997,eV/atom,
Rb$_{2}$U$_{2}$O$_{7}$,1.6672,eV/atom,
Ba$_{4}$Ag$_{3}$Ge$_{20}$,0.0,eV/atom,
Ba$_{2}$CoF$_{6}$,0.0,eV/atom,
Li$_{9}$Ga$_{3}$P$_{8}$O$_{29}$,3.3283000000000005,eV/atom,
K$_{3}$YbSi$_{2}$O$_{7}$,0.0,eV/atom,
ZrSiMo,0.0,eV/atom,
SiO$_{2}$,5.6934,eV/atom,
KSeNO$_{2}$,2.7877,eV/atom,
Tb(MnGe)$_{6}$,0.0,eV/atom,
SrH$_{4}$(SO$_{4}$)$_{3}$,5.865600000000001,eV/atom,
ThSnPt,0.6738,eV/atom,
Nb$_{2}$Zn$_{4}$O$_{9}$,2.5331,eV/atom,
NaLiYb$_{2}$F$_{8}$,0.0,eV/atom,
Fe$_{3}$C$_{9}$(SO$_{5}$)$_{2}$,2.1731,eV/atom,
InAg,0.0,eV/atom,
Fe(CO$_{3}$)$_{2}$,0.046699999999999964,eV/atom,
LaNiSb,0.0,eV/atom,
CaAl$_{2}$,0.0,eV/atom,
Mn$_{2}$AlCo,0.0,eV/atom,
Ca$_{4}$Zn$_{2}$Cu$_{3}$P$_{5}$,0.0,eV/atom,
BaSbAu,0.0,eV/atom,
DyGa$_{2}$Co$_{3}$,0.0,eV/atom,
Yb$_{3}$Se$_{4}$,0.0,eV/atom,
Ba$_{3}$Rh(CN)$_{3}$,0.6576,eV/atom,
H$_{13}$C$_{3}$NF$_{4}$,7.284,eV/atom,
LiVPO$_{5}$,1.5636,eV/atom,
Sc$_{2}$PbS$_{4}$,1.6635,eV/atom,
HoInPt$_{4}$,0.0,eV/atom,
K$_{3}$H(SO$_{4}$)$_{2}$,5.5008,eV/atom,
SnH$_{12}$Pt(N$_{2}$Cl$_{3}$)$_{2}$,1.834,eV/atom,
Cu$_{3}$BiS$_{3}$,0.7058,eV/atom,
Pr$_{2}$I$_{5}$,0.13020000000000032,eV/atom,
Nd(Sb$_{3}$Os)$_{4}$,0.0,eV/atom,
Sb$_{2}$ClO$_{2}$F$_{11}$,1.8464,eV/atom,
Na$_{5}$TaO$_{5}$,2.538,eV/atom,
EuMgF$_{4}$,0.28580000000000005,eV/atom,
NdCoSi,0.0,eV/atom,
TmCuSn,0.0,eV/atom,
Mg$_{2}$SiPt,0.0,eV/atom,
Zr$_{4}$Co$_{4}$Ge$_{7}$,0.0,eV/atom,
Nb$_{2}$B$_{2}$Os,0.0,eV/atom,
K$_{2}$Cd$_{3}$H$_{10}$S$_{4}$O$_{21}$,0.5061,eV/atom,
TbInCu$_{2}$,0.0,eV/atom,
CrBrO,1.4343000000000001,eV/atom,
Li$_{5}$BiO$_{5}$,1.3597000000000001,eV/atom,
Al(CoSi)$_{2}$,0.0,eV/atom,
P$_{4}$(SO$_{2}$)$_{3}$,4.1226,eV/atom,
Th(BIr)$_{4}$,0.0,eV/atom,
In$_{2}$O$_{3}$,0.7725,eV/atom,
Nb$_{5}$Ge$_{4}$,0.0,eV/atom,
Sm$_{3}$TlC,0.0,eV/atom,
MgAl$_{2}$,0.0,eV/atom,
Nd(Al$_{2}$Cr)$_{4}$,0.0,eV/atom,
P$_{2}$W$_{7}$O$_{25}$,0,eV/atom,
Y$_{2}$(WO$_{4}$)$_{3}$,4.7613,eV/atom,
TaAgS$_{3}$,0.0,eV/atom,
Eu(Cu$_{2}$As)$_{2}$,0.0,eV/atom,
Ni(H$_{2}$N)$_{2}$,1.1221999999999999,eV/atom,
SiB$_{6}$,0.05679999999999996,eV/atom,
K$_{2}$(ReS$_{2}$)$_{3}$,1.4087000000000005,eV/atom,
Tl$_{6}$SeI$_{4}$,1.6895000000000002,eV/atom,
Pr$_{2}$SeO$_{2}$,2.1691000000000003,eV/atom,
SmCo$_{2}$,0.0,eV/atom,
Tm$_{4}$In(NiGe$_{2}$)$_{2}$,0.0,eV/atom,
SiC,1.6221999999999994,eV/atom,
Sc$_{5}$Pb$_{3}$,0.0,eV/atom,
Cs(SbSe$_{2}$)$_{2}$,1.1176,eV/atom,
Mg$_{29}$Ir$_{4}$,0.0,eV/atom,
MgPb$_{2}$WO$_{6}$,2.7567999999999993,eV/atom,
Bi$_{2}$Se$_{4}$Cl$_{7}$,1.0179,eV/atom,
La$_{23}$Mg$_{4}$Rh$_{7}$,0.0,eV/atom,
Cs$_{4}$Zn$_{3}$F$_{10}$,4.6800999999999995,eV/atom,
NaCa$_{9}$Co(PO$_{4}$)$_{7}$,0.0,eV/atom,
CeMn$_{2}$(GeO$_{3}$)$_{4}$,0.03059999999999974,eV/atom,
SrLi$_{2}$(SiN$_{2}$)$_{2}$,3.436,eV/atom,
K$_{3}$Gd$_{5}$(PO$_{4}$)$_{6}$,2.7396000000000003,eV/atom,
Dy$_{2}$Ni$_{7}$Sn$_{3}$,0.0,eV/atom,
NdFe$_{2}$,0.0,eV/atom,
Ga$_{3}$Bi$_{5}$Cl$_{12}$,1.8012000000000001,eV/atom,
Na$_{3}$MoCl$_{6}$,1.7409000000000001,eV/atom,
NbHg$_{3}$F$_{6}$,0.0,eV/atom,
Y(GaFe)$_{6}$,0.0,eV/atom,
Ho$_{6}$MnBi$_{2}$,0.0,eV/atom,
Np$_{2}$O$_{5}$,0.0,eV/atom,
YbCo$_{3}$B$_{2}$,0.0,eV/atom,
Al$_{3}$GaN$_{4}$,3.3481000000000005,eV/atom,
Al$_{2}$(FeSi)$_{3}$,0.2298000000000009,eV/atom,
GaH$_{4}$NF$_{4}$,5.1596,eV/atom,F[Ga-](F)(F)F.[NH4+]
Ca$_{4}$Al$_{6}$SO$_{12}$,3.7266999999999997,eV/atom,
LaSn$_{2}$Pd,0.0,eV/atom,
Tb(CuSi)$_{2}$,0.0,eV/atom,
H$_{4}$WNCl$_{6}$,0.0,eV/atom,
La$_{2}$Si$_{2}$O$_{7}$,4.3649000000000004,eV/atom,
P$_{2}$SN$_{3}$Cl$_{5}$O,3.7852,eV/atom,
GaSe$_{2}$NCl$_{6}$,1.6414,eV/atom,
ZrIn$_{2}$,0.0,eV/atom,
Ca$_{3}$ReO$_{6}$,0.0,eV/atom,
AgNO$_{3}$,1.7070999999999998,eV/atom,
Ho$_{2}$Zn$_{17}$,0.0,eV/atom,
Cs$_{2}$ZnH$_{12}$(SeO$_{7}$)$_{2}$,3.767,eV/atom,
Mo$_{2}$S$_{3}$,0.0,eV/atom,
CsHoCdTe$_{3}$,1.5502000000000002,eV/atom,
As,0.0,eV/atom,
La(GeIr)$_{2}$,0.0,eV/atom,
KSb,0.9049,eV/atom,
SrV$_{2}$(PO$_{5}$)$_{2}$,1.8684000000000003,eV/atom,
BaRe$_{2}$(H$_{2}$O$_{3}$)$_{4}$,4.0226,eV/atom,
VGaCo$_{2}$,0.0,eV/atom,
Al$_{2}$S$_{3}$,1.6697000000000006,eV/atom,
Y$_{3}$(AlNi$_{3}$)$_{2}$,0.0,eV/atom,
Rb$_{7}$U$_{8}$V$_{2}$ClO$_{32}$,1.5465000000000002,eV/atom,
CsGaH$_{24}$(SO$_{10}$)$_{2}$,5.2373,eV/atom,
Na$_{5}$LiMn$_{2}$O$_{8}$,1.7783999999999998,eV/atom,
Tl$_{3}$B$_{3}$Se$_{10}$,1.3101000000000003,eV/atom,
Dy$_{3}$Ga$_{8}$Rh$_{3}$,0.0,eV/atom,
SnGeS$_{3}$,1.6350000000000002,eV/atom,
KPrTe$_{4}$,0.16909999999999936,eV/atom,
Ba$_{2}$As$_{2}$S$_{5}$,1.3668,eV/atom,
Na$_{4}$NpO$_{5}$,0.6496000000000004,eV/atom,
KSm$_{2}$Cl$_{5}$,0.4721000000000002,eV/atom,
Sr$_{2}$TaInO$_{6}$,3.9309000000000003,eV/atom,
KNiH$_{9}$(CO$_{5}$)$_{2}$,4.4696,eV/atom,
Ho(SiNi$_{5}$)$_{2}$,0.0,eV/atom,
BaTe,1.593,eV/atom,
KBS$_{4}$(ClO$_{3}$)$_{4}$,4.6223,eV/atom,
V$_{2}$P$_{2}$O$_{9}$,1.7822,eV/atom,
Ta$_{9}$VO$_{25}$,2.6133,eV/atom,
SrCrBi$_{12}$(Mo$_{2}$O$_{17}$)$_{2}$,2.5918999999999994,eV/atom,
EuNiGe$_{3}$,0.0,eV/atom,
CuH$_{8}$C$_{4}$O$_{5}$,0.3773,eV/atom,
FeH$_{12}$C$_{2}$N$_{2}$F$_{5}$,3.5842,eV/atom,
Cs$_{2}$CaH$_{4}$,3.01,eV/atom,
ScBe$_{5}$,0.0,eV/atom,
YbOF,2.1586999999999996,eV/atom,
VH$_{10}$N$_{2}$(OF$_{2}$)$_{2}$,3.0429,eV/atom,
Sn$_{3}$Te$_{3}$Ir$_{2}$,0.3959999999999999,eV/atom,
Mn$_{2}$BO$_{4}$,0.5519000000000003,eV/atom,
RbZrCdF$_{7}$,5.1017,eV/atom,
Na$_{3}$Li$_{2}$Al(SiO$_{4}$)$_{2}$,4.051,eV/atom,
Nd$_{2}$Bi,0.0,eV/atom,
Sr$_{9}$Zn$_{4}$(CuO$_{7}$)$_{2}$,1.7851,eV/atom,
FeSbPt,0.0,eV/atom,
Ca$_{5}$Al$_{6}$O$_{14}$,4.226,eV/atom,
CaGe$_{2}$O$_{5}$,2.6889999999999996,eV/atom,
Ce$_{2}$(Al$_{5}$Ru)$_{3}$,0.0,eV/atom,
ErCrTeO$_{6}$,2.6034,eV/atom,
K$_{8}$Th(MoO$_{4}$)$_{6}$,3.9442,eV/atom,
HoAl$_{4}$Ni,0.0,eV/atom,
Rb$_{2}$NaZn$_{2}$H$_{5}$(C$_{2}$O$_{7}$)$_{2}$,4.0529,eV/atom,
K$_{2}$FeH$_{4}$(SO$_{5}$)$_{2}$,4.3219,eV/atom,
Ge(BrF$_{5}$)$_{2}$,2.9044,eV/atom,
Nd$_{2}$(Al$_{3}$Co)$_{3}$,0.0,eV/atom,
Na$_{2}$TeO$_{3}$,3.2684000000000006,eV/atom,
AsNF$_{6}$,0.0,eV/atom,F[As-](F)(F)(F)(F)F.[NH4+]
NbTe$_{2}$(SeI$_{3}$)$_{2}$,0.9449999999999998,eV/atom,
ZrCu$_{4}$Ag,0.0,eV/atom,
K$_{3}$Al$_{4}$P$_{2}$O$_{8}$F$_{9}$,5.456,eV/atom,
BaCr$_{2}$O$_{4}$,2.5408000000000004,eV/atom,
Tb(FeP$_{3}$)$_{4}$,0.0,eV/atom,
Rb$_{3}$MnH$_{5}$,1.6939000000000002,eV/atom,
NdTeF,0.4204000000000008,eV/atom,
BC$_{2}$N,2.2285000000000004,eV/atom,
Tb$_{3}$CuSiS$_{7}$,1.7277000000000005,eV/atom,
MgH$_{6}$(SO$_{4}$)$_{4}$,5.9617,eV/atom,
Pr$_{3}$InO,0.0,eV/atom,
Rb$_{2}$Sb$_{8}$O$_{13}$,2.3306,eV/atom,
K$_{2}$NaInAs$_{2}$,0.6218999999999997,eV/atom,
NdGe$_{2}$,0.0,eV/atom,
Mn$_{2}$Co$_{3}$Ge,0.009199999999999875,eV/atom,
TaI$_{2}$O,0.8813000000000004,eV/atom,
Nb$_{3}$Au,0.0,eV/atom,
BH$_{2}$CO,4.0087,eV/atom,
BaWO$_{4}$,4.703,eV/atom,
Na$_{2}$MnCl$_{4}$,2.0864000000000003,eV/atom,
Na$_{2}$B$_{2}$S$_{5}$,2.5898,eV/atom,
Eu$_{3}$RuO$_{7}$,0.008099999999999774,eV/atom,
HfSnS$_{3}$,1.1982,eV/atom,
U(Fe$_{2}$Ge)$_{2}$,0.0,eV/atom,
Ta$_{7}$(Te$_{12}$I$_{5}$)$_{2}$,0.0,eV/atom,
LiNi$_{2}$Ge,0,eV/atom,
SiO$_{2}$,5.6777,eV/atom,
P$_{2}$WO$_{8}$,2.456,eV/atom,
Tl$_{2}$SnHgTe$_{4}$,0.12040000000000006,eV/atom,
Ca$_{2}$NiWO$_{6}$,3.2941,eV/atom,
TaBi$_{4}$ClO$_{8}$,1.0065999999999997,eV/atom,
NiAsRh,0.0,eV/atom,
CaZnAsHO$_{5}$,2.622,eV/atom,
Hg$_{2}$SeO$_{3}$,2.3109,eV/atom,
Sb$_{2}$Rh,0.004000000000000448,eV/atom,
SiO$_{2}$,5.7101,eV/atom,
HoSi$_{3}$Rh$_{5}$,0.0,eV/atom,
Nd(AlBr$_{4}$)$_{3}$,3.3848000000000003,eV/atom,
Ti$_{2}$CoS$_{4}$,0.0,eV/atom,
CaMnF$_{5}$,1.2945,eV/atom,
Ba(CrAs)$_{2}$,0.0,eV/atom,
Sr$_{11}$Sb$_{10}$,0.0,eV/atom,
Pm$_{2}$O$_{3}$,3.7016,eV/atom,
Al$_{21}$Pd$_{8}$,0.0,eV/atom,
NaCa$_{4}$(BO$_{3}$)$_{3}$,4.0868,eV/atom,
RbNa$_{7}$(CoO$_{3}$)$_{2}$,1.0163,eV/atom,
Li$_{4}$NO,0.0,eV/atom,
Tm$_{2}$NiAs$_{2}$,0.0,eV/atom,
Rb$_{2}$TeSe$_{4}$,0.9217999999999997,eV/atom,
Dy$_{2}$CoGe$_{2}$,0.0,eV/atom,
Ca$_{3}$TaGa$_{3}$(SiO$_{7}$)$_{2}$,3.9122000000000003,eV/atom,
FeSO$_{4}$,4.2084,eV/atom,
TmAsPt,0.0,eV/atom,
Sr$_{4}$Mn$_{2}$CoO$_{9}$,0.0,eV/atom,
Gd$_{3}$PbC,0.0,eV/atom,
AgH$_{2}$ClO$_{5}$,2.8242,eV/atom,
NaV(GeO$_{3}$)$_{2}$,2.0459,eV/atom,
Gd$_{2}$SeO$_{2}$,1.3184999999999998,eV/atom,
Mg$_{5}$B$_{3}$O$_{9}$F,5.118399999999999,eV/atom,
KYTe$_{2}$,1.3029000000000002,eV/atom,
V$_{3}$SiNi$_{2}$,0.0,eV/atom,
YAl$_{3}$Ni,0.0,eV/atom,
MnH$_{30}$C$_{8}$(N$_{13}$O$_{9}$)$_{2}$,1.6095,eV/atom,
Li$_{3}$Fe$_{2}$(PO$_{4}$)$_{3}$,2.473,eV/atom,
CsFe(SO$_{4}$)$_{2}$,2.6754000000000002,eV/atom,
Y$_{2}$Ge$_{5}$Ru$_{3}$,0.0,eV/atom,
Fe$_{2}$BO$_{4}$,1.1187999999999998,eV/atom,
Ca$_{2}$CoO$_{3}$,0.9185,eV/atom,
SnPt$_{3}$,0.0,eV/atom,
SiP$_{3}$H$_{29}$C$_{10}$BrN,4.0491,eV/atom,
LiGaCl$_{4}$,4.4866,eV/atom,
GeAs$_{2}$,0.7096999999999998,eV/atom,
Ag(Bi$_{2}$S$_{3}$)$_{3}$,0.0,eV/atom,
Dy$_{2}$MgSi$_{2}$,0.0,eV/atom,
Tl$_{3}$CoCl$_{5}$,0.6109999999999998,eV/atom,
Gd(IO$_{3}$)$_{3}$,2.9587,eV/atom,
Ca$_{3}$SiH$_{30}$CSO$_{25}$,4.4162,eV/atom,
Si$_{2}$Ni,0.0,eV/atom,
Nd$_{4}$(SBr$_{2}$)$_{3}$,2.8092,eV/atom,
CdRe$_{2}$(NO$_{2}$)$_{4}$,0.0,eV/atom,
RbGdTe$_{4}$,0.0019000000000000128,eV/atom,
GaSe,1.2233,eV/atom,
Ce$_{3}$(SiRh)$_{4}$,0.0,eV/atom,
YMgZn,0.0,eV/atom,
Al$_{2}$P$_{2}$H$_{4}$O$_{11}$,0.3052,eV/atom,
Cs$_{2}$Ni(NO$_{3}$)$_{4}$,2.943,eV/atom,
K$_{2}$Fe(CO)$_{4}$,3.5147000000000004,eV/atom,
Ti$_{4}$Cu$_{2}$O,0.0,eV/atom,
Ca$_{5}$CuPb$_{3}$,0.0,eV/atom,
Na$_{2}$W$_{2}$O$_{7}$,4.0512,eV/atom,
ReH(CO)$_{4}$,2.9087,eV/atom,
CuH$_{16}$(IO$_{8}$)$_{2}$,0.5665,eV/atom,
AlH$_{18}$Ru(NF)$_{6}$,0.0,eV/atom,
EuSnPt,0.0,eV/atom,
KI$_{3}$F$_{16}$,4.1785,eV/atom,
ZrInPt$_{2}$,0.0,eV/atom,
CsEr$_{3}$Se$_{5}$,1.5437999999999998,eV/atom,
CaB$_{2}$F$_{8}$,8.3113,eV/atom,
KLiCrO$_{4}$,2.8533999999999997,eV/atom,
K$_{2}$Zn(GeO$_{3}$)$_{2}$,2.8724999999999996,eV/atom,
GdFe$_{2}$,0.010899999999999466,eV/atom,
RbUSO$_{6}$F,2.1799,eV/atom,
SiO$_{2}$,5.6413,eV/atom,
K$_{2}$PrBr$_{5}$,4.007,eV/atom,
TaP,0.0,eV/atom,
K$_{2}$WCl$_{6}$,0.0,eV/atom,
ErCo$_{3}$B$_{2}$,0.0,eV/atom,
Ta$_{2}$PdS$_{6}$,0.0,eV/atom,
LiGa(WO$_{4}$)$_{2}$,3.4505999999999997,eV/atom,
Cs$_{2}$Sb$_{2}$OF$_{10}$,3.8704,eV/atom,
Mg$_{2}$Zn$_{11}$,0.0,eV/atom,
YbFeB$_{4}$,0.0,eV/atom,
PH$_{6}$NO$_{3}$,6.286099999999999,eV/atom,
GeXeF$_{10}$,2.3433,eV/atom,
LaSn$_{2}$Rh,0.019099999999999895,eV/atom,
RbCaAs,1.3010000000000002,eV/atom,
Ba$_{8}$Bi$_{4}$H$_{2}$O,0.5637000000000003,eV/atom,
KCd$_{13}$,0.0,eV/atom,
GaAgS$_{2}$,1.0178000000000003,eV/atom,
Sm(Sb$_{3}$Os)$_{4}$,0.0,eV/atom,
NaZrCuTe$_{3}$,0.0,eV/atom,
GdS$_{2}$,0.42790000000000017,eV/atom,
Np(SiNi)$_{2}$,0.0,eV/atom,
Ba$_{3}$MgGeN$_{4}$,1.2902,eV/atom,
Th(CuP)$_{2}$,0.12080000000000002,eV/atom,
K$_{2}$MnS$_{2}$,0.9732999999999998,eV/atom,
ScSiPd,0.0,eV/atom,
Li$_{2}$MgH$_{4}$,3.6279,eV/atom,
Mn(SbO$_{2}$)$_{2}$,1.6341999999999999,eV/atom,
RbSc$_{5}$Te$_{8}$,0.3273999999999999,eV/atom,
NaSbCO$_{2}$F$_{3}$,3.098,eV/atom,
KNdTe$_{2}$,1.2648000000000001,eV/atom,
PrMgGa,0.0,eV/atom,
Li$_{2}$Cr(H$_{2}$O$_{3}$)$_{2}$,3.052,eV/atom,
CsRe$_{6}$S$_{8}$Br$_{3}$,1.4922,eV/atom,
CI$_{4}$,1.1002999999999998,eV/atom,IC(I)(I)I
Ge$_{3}$Ru$_{2}$,0.3814000000000002,eV/atom,
Cs$_{2}$Ti(Si$_{2}$O$_{5}$)$_{3}$,3.5085,eV/atom,
SiH$_{10}$C$_{2}$N$_{4}$(OF$_{3}$)$_{2}$,5.5053,eV/atom,
SrCO$_{3}$,4.425400000000001,eV/atom,
Nb$_{3}$Tl$_{2}$Br$_{9}$,1.0296,eV/atom,
YPt$_{3}$C,0.0,eV/atom,
K$_{4}$(NiO$_{2}$)$_{3}$,0.6803,eV/atom,
BrN(OF$_{2}$)$_{2}$,2.341,eV/atom,
KSc(MoO$_{4}$)$_{2}$,3.6132,eV/atom,
CsCrH$_{24}$(SO$_{10}$)$_{2}$,3.9667000000000003,eV/atom,[Cr+3].[Cs+].O=S(=O)([O-])[O-].O=S(=O)([O-])[O-].O.O.O.O.O.O.O.O.O.O.O.O
As$_{2}$Pb$_{2}$S$_{5}$,1.6038000000000001,eV/atom,
XeF$_{6}$,2.7851,eV/atom,
Cu$_{2}$As$_{4}$S$_{3}$Cl$_{2}$,1.4078000000000004,eV/atom,
Al$_{2}$P$_{3}$(HO$_{3}$)$_{3}$,6.2699,eV/atom,
Sr$_{2}$CrSbO$_{6}$,1.541,eV/atom,
Pu(FeSi)$_{2}$,0.0,eV/atom,
Zr$_{5}$SiSb$_{3}$,0.0,eV/atom,
BaLaI$_{4}$,0.0,eV/atom,
NaTi$_{2}$HO$_{5}$,0.0,eV/atom,
ZnS,2.0266,eV/atom,
Nd$_{12}$C$_{6}$I$_{17}$,0.0,eV/atom,
CsSmHgSe$_{3}$,1.7129,eV/atom,
AgSbTe$_{2}$,0.0,eV/atom,
Mg(BC)$_{2}$,1.0168999999999997,eV/atom,
KVPO$_{5}$,1.4893999999999998,eV/atom,
MnH$_{12}$C$_{2}$(NCl$_{2}$)$_{2}$,1.5011,eV/atom,
CuAu$_{3}$,0.0,eV/atom,
ZrSO,0.7935999999999996,eV/atom,
CsTbCdSe$_{3}$,2.0647,eV/atom,
Tl$_{2}$B$_{4}$O$_{7}$,3.3162000000000003,eV/atom,
FePO$_{4}$,2.6721000000000004,eV/atom,
LuGa,0.0,eV/atom,
NaNdMnWO$_{6}$,2.6106,eV/atom,
Pb$_{3}$SO$_{6}$,2.8022,eV/atom,
HoCuPb,0.0,eV/atom,
Si$_{2}$Ni$_{7}$P$_{5}$,0.0,eV/atom,
La$_{3}$Co$_{3}$O$_{8}$,0.0,eV/atom,
Hg$_{3}$(ClO)$_{2}$,0.29939999999999994,eV/atom,
LiPH$_{4}$NO$_{3}$F,5.104100000000001,eV/atom,
Co$_{8}$Te(AsO$_{8}$)$_{2}$,0.7623000000000002,eV/atom,
Mg(As$_{2}$Rh$_{3}$)$_{2}$,0.0,eV/atom,
Se,0.9987999999999999,eV/atom,[Se]
La$_{3}$TaO$_{7}$,3.4556000000000004,eV/atom,
K$_{3}$H(SeO$_{4}$)$_{2}$,3.5508,eV/atom,
GaBr$_{2}$,3.1591,eV/atom,
Na$_{3}$VS$_{3}$O,2.0204,eV/atom,
YNbO$_{4}$,3.5446,eV/atom,
SmAsSe,0.0,eV/atom,
NaWO$_{3}$,0.0,eV/atom,
Rb$_{3}$Nb$_{6}$SBr$_{17}$,0.5722,eV/atom,
CuBClO$_{4}$,0.0,eV/atom,
AlTc$_{2}$,0.0,eV/atom,
TaTl(GeO$_{3}$)$_{3}$,3.6578,eV/atom,
Ba$_{2}$V$_{2}$O$_{7}$,3.4599,eV/atom,
Pr(Re$_{2}$Si)$_{2}$,0.0,eV/atom,
TbAsO$_{4}$,3.6466000000000003,eV/atom,
UPbO$_{4}$,1.5100999999999996,eV/atom,
Ho$_{3}$Ge$_{5}$,0.0,eV/atom,
Ba$_{2}$Cu$_{4}$Te$_{4}$Cl$_{4}$O$_{11}$,0.0,eV/atom,
CeAl$_{2}$BRu$_{2}$,0.0,eV/atom,
Ca$_{3}$SiO$_{5}$,3.6959999999999997,eV/atom,
HfSb,0.0,eV/atom,
Co$_{2}$PHO$_{5}$,2.3899,eV/atom,
CaNiBN,0.2513999999999994,eV/atom,
K$_{5}$YNi$_{2}$(NO$_{2}$)$_{12}$,1.4293,eV/atom,
MgSiO$_{3}$,4.642499999999999,eV/atom,
Hg$_{2}$H$_{10}$C$_{3}$NCl$_{5}$,2.8392999999999997,eV/atom,
TlV$_{4}$FeS$_{8}$,0.0,eV/atom,
KVO$_{3}$,3.0372000000000003,eV/atom,
YHO$_{2}$,4.0468,eV/atom,
NbSe$_{3}$,0.0,eV/atom,
SrCu(TeO$_{3}$)$_{2}$,0.0,eV/atom,
Lu(Al$_{2}$Cr)$_{4}$,0.0,eV/atom,
Ho$_{10}$In$_{20}$Ni$_{9}$,0.0,eV/atom,
K$_{4}$BeAs$_{2}$,0.8851000000000001,eV/atom,
C$_{3}$N$_{4}$,0.0,eV/atom,
Nb$_{12}$O$_{29}$,0.0777000000000001,eV/atom,
Hf$_{2}$Al,0.0,eV/atom,
MgS,2.7628000000000004,eV/atom,
KZrPSe$_{6}$,0.0,eV/atom,
Sn(S$_{4}$I)$_{4}$,1.7663,eV/atom,
YbGeAu,0.0,eV/atom,
H$_{9}$CN$_{5}$Cl$_{2}$,4.702999999999999,eV/atom,[Cl-].[Cl-].NNC(=[NH2+])N[NH3+]
V(NiP$_{4}$)$_{4}$,0.0,eV/atom,
K$_{2}$NiH$_{12}$(SO$_{7}$)$_{2}$,4.8704,eV/atom,
Rb$_{2}$O,1.3192,eV/atom,
YbBiPd,0.0,eV/atom,
NdInCu,0.0,eV/atom,
NiH$_{2}$SO$_{5}$,3.9322,eV/atom,
Na$_{4}$BeAlSi$_{4}$ClO$_{12}$,4.6318,eV/atom,
Cs$_{2}$Al$_{2}$As$_{2}$O$_{7}$,3.6603000000000003,eV/atom,
Ba(BRh)$_{2}$,0.0,eV/atom,
PrP,0.0,eV/atom,
RbAlPdF$_{6}$,0.5243,eV/atom,
EuAgAs,0.0,eV/atom,
TbIr$_{2}$,0.0,eV/atom,
CdI$_{2}$,2.3354,eV/atom,
YbB$_{2}$Ru$_{3}$,0.0,eV/atom,
Mn(FeO$_{2}$)$_{2}$,0.9977000000000005,eV/atom,
Mg$_{7}$Ti,0.0,eV/atom,
MgO,3.2582999999999998,eV/atom,
Sr$_{2}$SnS$_{4}$,2.4697999999999998,eV/atom,
BaH$_{3}$C$_{3}$O$_{7}$,2.8525,eV/atom,[Ba+2].O=C([O-])C(=O)O.O=C([O-])C(=O)O.O
NbSe$_{2}$,0.05799999999999994,eV/atom,
NdTe$_{2}$,0.0,eV/atom,
Cu$_{5}$Sn$_{2}$Te$_{7}$,0.0,eV/atom,
Zr$_{3}$AlN,0.0,eV/atom,
K$_{2}$As$_{2}$Pd,0.6457999999999999,eV/atom,
LiScO$_{2}$,3.904,eV/atom,
FePS$_{3}$,0.0,eV/atom,
ErHg,0.0,eV/atom,
CaPAu,0.0,eV/atom,
SrIn$_{4}$,0.0,eV/atom,
La$_{3}$(Sn$_{3}$Pd$_{2}$)$_{2}$,0.0,eV/atom,
KNaSiF$_{6}$,6.980499999999999,eV/atom,
CuCClO,2.3667,eV/atom,
TlBr,2.2965,eV/atom,
TlSb(PSe$_{3}$)$_{2}$,1.6168999999999998,eV/atom,
LaGePt,0.0,eV/atom,
CsAs$_{3}$O$_{8}$,2.2357,eV/atom,
Al$_{2}$Pb$_{3}$F$_{12}$,5.2252,eV/atom,
Dy$_{2}$Cr$_{2}$C$_{3}$,0.0,eV/atom,
RbZrMnF$_{7}$,4.4403999999999995,eV/atom,
Ga$_{7}$Ni$_{3}$,0.0,eV/atom,
CuSe$_{2}$Br,0.8465,eV/atom,
Bi$_{4}$Br$_{2}$O$_{5}$,2.5121,eV/atom,
UNb$_{2}$O$_{7}$,0.0,eV/atom,
Ga$_{2}$CuCl$_{8}$,0.6948,eV/atom,
MoF$_{5}$,2.0375,eV/atom,
Rb$_{2}$Sb$_{4}$O$_{11}$,1.8205,eV/atom,
TaInS$_{2}$,0.0,eV/atom,
Na(CuO)$_{2}$,0.0,eV/atom,
NbGa$_{3}$,0.0,eV/atom,
V$_{2}$GaSn$_{2}$,0.0,eV/atom,
Mn$_{3}$As(HO$_{2}$)$_{4}$,1.2746000000000002,eV/atom,
La$_{3}$(BN$_{2}$)$_{2}$,0.0,eV/atom,
CoSb(CO)$_{3}$,1.6035,eV/atom,
HoAlO$_{3}$,5.8318,eV/atom,
Rb$_{4}$Nb$_{2}$S$_{10}$O,1.5715999999999999,eV/atom,
SrFe$_{2}$(P$_{2}$O$_{7}$)$_{2}$,2.5887000000000002,eV/atom,
PrTiGe,0.0,eV/atom,
B$_{5}$H$_{11}$N$_{2}$,3.8592999999999997,eV/atom,
Sr(CuGe)$_{2}$,0.0,eV/atom,
EuGaSn,0.0,eV/atom,
NaAuC$_{2}$,0.0,eV/atom,
EuScGe,0.0,eV/atom,
TbAu$_{3}$,0.0,eV/atom,
PrCuSn$_{2}$,0.0,eV/atom,
U(WO$_{4}$)$_{2}$,0.0,eV/atom,
H$_{8}$CS(NO)$_{4}$,5.1351,eV/atom,O=S(=O)([O-])[O-].NNC(N)=[NH2+].NNC(N)=[NH2+]
TlBrO$_{4}$,2.9991,eV/atom,
LaNbO$_{4}$,3.9345,eV/atom,
Eu$_{3}$(B$_{3}$Rh$_{4}$)$_{2}$,0.0,eV/atom,
Li$_{5}$ReO$_{6}$,2.1582999999999997,eV/atom,
DyTlZn,0.0,eV/atom,
MnH$_{16}$C$_{4}$(Br$_{2}$N)$_{2}$,2.7217000000000002,eV/atom,
VCdO$_{3}$,1.6580000000000001,eV/atom,
SrPbO$_{3}$,0.7933000000000003,eV/atom,
TbCoGe,0.0,eV/atom,
Cd$_{4}$NiH$_{20}$(ClO)$_{10}$,3.7563999999999997,eV/atom,
ThH$_{20}$C$_{4}$S$_{2}$N$_{8}$O$_{15}$,0.28190000000000004,eV/atom,
CsGaTe$_{2}$,1.503,eV/atom,
LaBiPt,0.0,eV/atom,
Cu$_{8}$SiS$_{6}$,1.2330000000000005,eV/atom,
Sr$_{5}$(InSb$_{3}$)$_{2}$,0.053300000000000125,eV/atom,
HfNi$_{2}$Sb,0.0,eV/atom,
EuSn,0.0,eV/atom,
CeFeGe$_{3}$,0.0,eV/atom,
K$_{2}$Se$_{4}$O,1.0833,eV/atom,
K$_{2}$PdS$_{2}$,1.2448000000000001,eV/atom,
MnP$_{2}$O$_{7}$,1.0733000000000001,eV/atom,
MnPH$_{2}$(CO)$_{4}$,3.1559,eV/atom,
KBe$_{3}$ZnF$_{9}$,6.2447,eV/atom,
TiCoO$_{3}$,0.0,eV/atom,
MnFeC$_{5}$N$_{6}$O,1.3475000000000001,eV/atom,
Ca$_{3}$(ClO$_{3}$)$_{2}$,0.0,eV/atom,
Co$_{3}$(AsO$_{4}$)$_{2}$,1.7365,eV/atom,
KThCuS$_{3}$,2.0422000000000002,eV/atom,
K$_{3}$SbO$_{3}$,3.2348,eV/atom,
HgBr$_{2}$,1.682,eV/atom,
Li$_{2}$Ga,0.0,eV/atom,
NaLa$_{2}$RuO$_{6}$,0.4821,eV/atom,
SmCu$_{2}$,0.0,eV/atom,
ZrPbO$_{3}$,2.2792000000000003,eV/atom,
DyIn$_{3}$Cu$_{2}$,0.0,eV/atom,
Ta$_{2}$CS$_{2}$,0.0,eV/atom,
Fe(NF$_{2}$)$_{3}$,0.0,eV/atom,
MgMnGe,0.0,eV/atom,
KTb$_{2}$Cu(MoO$_{4}$)$_{4}$,1.1595,eV/atom,
Er(IO$_{3}$)$_{3}$,3.461,eV/atom,
Eu$_{2}$SiO$_{4}$,0.7010000000000005,eV/atom,
Ho$_{3}$Si$_{2}$(SnRh$_{3}$)$_{3}$,0.0,eV/atom,
TiNb$_{3}$Cl$_{7}$O$_{2}$,0.0,eV/atom,
CaAs,0.0,eV/atom,
MgFe(SiO$_{3}$)$_{2}$,3.5914,eV/atom,
VH$_{5}$Se$_{2}$NO$_{7}$,2.0850999999999997,eV/atom,
Y$_{3}$(CuSn)$_{4}$,0.0,eV/atom,