formula,Property band_gap,Property band_gap units,Property SMILES
KMo$_{3}$(PO$_{7}$)$_{2}$,2.1751,eV/atom,
LaTlO$_{3}$,0.3504000000000005,eV/atom,
SiO$_{2}$,5.6152,eV/atom,
Cs$_{3}$TlF$_{6}$,3.3218,eV/atom,
GdSnF$_{7}$,4.4455,eV/atom,
PrAlCu,0.0,eV/atom,
Cr$_{5}$As$_{3}$,0.0,eV/atom,
Si$_{2}$Ag$_{6}$O$_{7}$,0.17580000000000018,eV/atom,
NdAgPb,0.0,eV/atom,
Sr$_{2}$MgOsO$_{6}$,0.0,eV/atom,
TaFeGe,0.0,eV/atom,
Mo$_{6}$PbI$_{14}$,1.8429999999999995,eV/atom,
CaZn$_{5}$,0.0,eV/atom,
SmCuPb,0.0,eV/atom,
CsRbN,0.0,eV/atom,
Mo$_{3}$H$_{9}$Br$_{3}$(ClO)$_{4}$,0.2337999999999999,eV/atom,
Na$_{2}$Sc$_{2}$P$_{4}$H$_{12}$C$_{4}$O$_{13}$,0.0,eV/atom,
TaTe$_{2}$,0.0,eV/atom,
HfMn$_{2}$,0.0,eV/atom,
NaVBP$_{2}$H$_{3}$O$_{10}$,2.1429,eV/atom,
SrBiO$_{3}$,0.31110000000000015,eV/atom,
He,17.8914,eV/atom,
MnSnRh$_{2}$,0.0,eV/atom,
Sr(AsPd)$_{2}$,0.0,eV/atom,
CsV$_{5}$Se$_{8}$,0.04070000000000018,eV/atom,
CaAgAs,0.019599999999999618,eV/atom,
CaSO$_{4}$,5.9558,eV/atom,
NaFeO$_{2}$,2.0607999999999995,eV/atom,
ZnS,2.0245,eV/atom,
Tl(CuO)$_{2}$,0.0,eV/atom,
CsAsSe$_{2}$,1.4159,eV/atom,
Dy(GePt)$_{2}$,0.0,eV/atom,
PH$_{3}$W(CO)$_{5}$,2.8337,eV/atom,
Ni$_{3}$Te$_{2}$,0.0,eV/atom,
K$_{2}$Hg$_{3}$(GeSe$_{4}$)$_{2}$,1.0352000000000001,eV/atom,
RbNaO,1.9855999999999998,eV/atom,
SiO$_{2}$,5.6211,eV/atom,
Na$_{2}$PtSe$_{2}$,0.8645999999999998,eV/atom,
Na$_{3}$GaSe$_{3}$,2.0823,eV/atom,
TmTe,0.0,eV/atom,
Cs,0.0,eV/atom,
In$_{2}$Bi,0.0,eV/atom,
Al$_{4}$CO$_{4}$,3.8248,eV/atom,
Y$_{2}$Cl$_{3}$,0.7587000000000002,eV/atom,
NdSi$_{2}$,0.0,eV/atom,
Ag$_{5}$CF$_{4}$,1.9276999999999997,eV/atom,
Pr$_{3}$Bi$_{4}$Au$_{3}$,0.38730000000000064,eV/atom,
UCuO$_{4}$,0.0,eV/atom,
K$_{2}$P$_{2}$H$_{2}$O$_{7}$,4.9118,eV/atom,
Cs$_{3}$Bi$_{7}$Se$_{12}$,0.6092999999999997,eV/atom,
KC$_{2}$N$_{3}$,3.717,eV/atom,
Hf$_{5}$Sn$_{3}$,0.0,eV/atom,
PIr$_{2}$,0.0,eV/atom,
Ta$_{5}$P$_{3}$,0.0,eV/atom,
RbAuSe,1.7116000000000002,eV/atom,
YbMgAu,0.0,eV/atom,
Os$_{3}$C$_{12}$(IO$_{6}$)$_{2}$,2.1291,eV/atom,
Er$_{5}$Mg$_{24}$,0.0,eV/atom,
TlZn(PO$_{3}$)$_{3}$,4.5196,eV/atom,
Mo$_{2}$C$_{3}$S$_{2}$(Cl$_{5}$O)$_{2}$,2.0977,eV/atom,
BaCa$_{2}$Mg(SiO$_{4}$)$_{2}$,4.9719999999999995,eV/atom,
Tb(CuGe)$_{2}$,0.0,eV/atom,
Fe$_{7}$Co,0.0,eV/atom,
KB$_{5}$O$_{8}$,5.3412,eV/atom,
CdI$_{2}$,2.3882,eV/atom,
ZrI$_{2}$,0.36989999999999945,eV/atom,
CaSn(BO$_{3}$)$_{2}$,3.7009999999999996,eV/atom,
WBr$_{2}$,2.4687,eV/atom,
Ce$_{3}$Bi$_{4}$Pd$_{3}$,0.19980000000000064,eV/atom,
Cs$_{3}$CoI$_{5}$,0.7504000000000001,eV/atom,
SmNiAs,0.0,eV/atom,
In$_{7}$Br$_{9}$,1.5437999999999998,eV/atom,
V$_{3}$Au,0.0,eV/atom,
Na$_{2}$S,2.1176000000000004,eV/atom,
Ca$_{3}$TiBe$_{2}$Si$_{2}$(As$_{3}$O$_{10}$)$_{2}$,2.6233000000000004,eV/atom,
ReN$_{2}$,0.0,eV/atom,
K$_{3}$P(W$_{3}$O$_{10}$)$_{4}$,3.238,eV/atom,
Na$_{4}$TeO$_{5}$,2.1185,eV/atom,
CdH$_{24}$C$_{4}$(BrN$_{2}$)$_{6}$,3.4344,eV/atom,
Ba$_{2}$SrTeO$_{6}$,3.1291999999999995,eV/atom,
Sm(AlZn)$_{2}$,0.0,eV/atom,
Ba$_{5}$In$_{4}$Te$_{4}$S$_{7}$,1.1382000000000003,eV/atom,
La$_{3}$CBr$_{5}$,2.2338000000000005,eV/atom,
K$_{2}$BeO$_{2}$,2.9204,eV/atom,
CuH$_{6}$BrN$_{2}$,2.1412,eV/atom,
Re$_{2}$SnC$_{10}$(ClO$_{5}$)$_{2}$,0.38539999999999996,eV/atom,
Nb$_{5}$Ga$_{4}$,0.0,eV/atom,
ZrPbS$_{3}$,1.2455000000000003,eV/atom,
LiP$_{3}$PbO$_{9}$,4.7126,eV/atom,
SrCu$_{2}$SnS$_{4}$,0.3982000000000001,eV/atom,
GdCo$_{3}$B$_{2}$,0.028999999999999915,eV/atom,
GePt$_{3}$,0.0,eV/atom,
LiErS$_{2}$,2.0065999999999997,eV/atom,
SrPuO$_{4}$,0.0,eV/atom,
Cs$_{2}$CuH$_{12}$(SO$_{7}$)$_{2}$,0.8262,eV/atom,
LaCoPO,0.013799999999999812,eV/atom,
Rb$_{3}$PS$_{4}$,2.7367999999999997,eV/atom,
MgBeAl$_{4}$O$_{8}$,5.5283999999999995,eV/atom,
AgTe$_{3}$,0.0,eV/atom,
CaAl$_{4}$,0.0,eV/atom,
Er(CuO$_{2}$)$_{2}$,0.0,eV/atom,
Mo$_{2}$P$_{2}$PbO$_{12}$,2.7123,eV/atom,
KYGeS$_{4}$,2.4167,eV/atom,
Sr$_{2}$FeOsO$_{6}$,0.0,eV/atom,
Mn$_{5}$V$_{2}$Pb$_{3}$O$_{16}$,0.5634000000000001,eV/atom,
NaGaH$_{4}$,4.7345,eV/atom,
CdI$_{2}$,0.0,eV/atom,
DyMn$_{2}$,0.0,eV/atom,
VBr$_{2}$,1.1314000000000002,eV/atom,
Mn$_{9}$Al$_{2}$Si$_{8}$(HO$_{4}$)$_{8}$,2.8006,eV/atom,
LiMnO$_{4}$,1.5169,eV/atom,
K$_{2}$Mn$_{3}$H$_{10}$S$_{4}$O$_{21}$,4.0642,eV/atom,
LiMgSnPt,0.0,eV/atom,
NdPt$_{3}$,0.0,eV/atom,
NaH$_{4}$CNO$_{2}$,5.3232,eV/atom,
Lu(Al$_{2}$Cu)$_{4}$,0.0,eV/atom,
BaHfN$_{2}$,1.2537000000000003,eV/atom,
Cs$_{2}$H$_{4}$RuNCl$_{5}$O$_{3}$,1.7959999999999998,eV/atom,
CoP$_{3}$H$_{12}$NO$_{7}$,3.2087,eV/atom,
CeCo$_{5}$,0.0,eV/atom,
AsHPb$_{4}$(ClO)$_{4}$,3.1812,eV/atom,
CuC$_{3}$(OF)$_{3}$,2.789,eV/atom,
Tm$_{3}$FeSi$_{3}$,0.0,eV/atom,
Ho$_{7}$In(CoGe$_{3}$)$_{4}$,0.0,eV/atom,
AlNi,0.0,eV/atom,
La$_{6}$Mo$_{8}$O$_{33}$,3.2255000000000003,eV/atom,
TlSbAu,0.0,eV/atom,
Ti$_{3}$Se$_{4}$,0.0,eV/atom,
Li$_{2}$MnF$_{6}$,2.7159999999999997,eV/atom,
Mn$_{3}$Pt,0.0,eV/atom,
KMnF$_{3}$,2.7802,eV/atom,
ZrHg$_{3}$,0.0,eV/atom,
KSrVO$_{4}$,3.8426,eV/atom,
CsSO$_{2}$F,4.4107,eV/atom,
LuTe$_{2}$,0.0,eV/atom,
Ti$_{3}$Pd$_{5}$,0.0,eV/atom,
NaB$_{3}$H$_{4}$O$_{7}$,5.3518,eV/atom,
Sc$_{3}$PbC,0.0,eV/atom,
Zr$_{2}$P$_{2}$O$_{9}$,4.1039,eV/atom,[Zr+4].[Zr+4].O=P([O-])([O-])OP(=O)([O-])[O-].O=P([O-])([O-])OP(=O)([O-])[O-]
NaScCl$_{4}$,3.8115,eV/atom,
SNCl,2.6799999999999997,eV/atom,
SeN,1.8778000000000001,eV/atom,
La$_{3}$Ni$_{2}$O$_{7}$,0.0,eV/atom,
Nd(CoB)$_{4}$,0.0,eV/atom,
GaPO$_{4}$,4.4398,eV/atom,
RbHoO$_{2}$,3.6250999999999998,eV/atom,
Ag$_{5}$SbS$_{4}$,0.5920000000000001,eV/atom,
Sm$_{3}$Si$_{2}$ClO$_{8}$,4.4572,eV/atom,
Ce(Ni$_{2}$B)$_{6}$,0.0,eV/atom,
Rb$_{2}$Mn(PS$_{3}$)$_{2}$,1.1690999999999998,eV/atom,
Sr$_{3}$CdIrO$_{6}$,0.0,eV/atom,
SrZrO$_{3}$,3.5667,eV/atom,
Ba$_{3}$SrSb$_{2}$O$_{9}$,3.1353,eV/atom,
Nd$_{2}$WO$_{6}$,3.7285,eV/atom,
P$_{2}$NCl$_{5}$O,3.7195,eV/atom,O=P(Cl)(Cl)N=P(Cl)(Cl)Cl
InHg,0.15310000000000024,eV/atom,
CsTiAsO$_{5}$,3.0051,eV/atom,
Ho$_{2}$Si$_{2}$O$_{7}$,5.0286,eV/atom,
MnH$_{21}$C$_{7}$S$_{3}$N,1.4577999999999998,eV/atom,
In$_{2}$PO$_{5}$,2.111999999999999,eV/atom,
BaMg(CO$_{2}$)$_{2}$,1.3501000000000003,eV/atom,
Bi$_{5}$BrO$_{7}$,2.808,eV/atom,
Cu$_{2}$SiNiS$_{4}$,0.0,eV/atom,
Rb$_{2}$U(N$_{2}$O$_{7}$)$_{2}$,1.7696,eV/atom,
RePbClO$_{4}$,3.3739,eV/atom,
Be$_{2}$Ru,0.0,eV/atom,
SbPbF$_{7}$,4.0464,eV/atom,
HoInCu,0.0,eV/atom,
SbCl$_{5}$,1.7221,eV/atom,
ZnS,2.0265,eV/atom,
BaCu$_{4}$S$_{3}$,0.4519000000000002,eV/atom,
ZrGeOs,0.0,eV/atom,
BaThO$_{3}$,3.2009000000000003,eV/atom,
Rb$_{2}$TbGa(SiO$_{3}$)$_{4}$,4.0952,eV/atom,
TbInPt$_{4}$,0.0,eV/atom,
ThPd,0.0,eV/atom,
Ti$_{2}$Co(PO$_{5}$)$_{2}$,2.5183999999999997,eV/atom,
FeTeS$_{2}$N$_{2}$Cl$_{5}$,1.284,eV/atom,
K$_{2}$SnCl$_{6}$,2.4614,eV/atom,
AlTl$_{2}$F$_{5}$,4.3609,eV/atom,
HfSiPd,0.0,eV/atom,
Cr(Te$_{2}$Rh)$_{2}$,0.0,eV/atom,
EuCdPb,0.0,eV/atom,
ZrAl$_{2}$,0.0,eV/atom,
Ba$_{2}$Y(Cu$_{2}$O$_{3}$)$_{2}$,0.0,eV/atom,
Fe$_{2}$TeO$_{6}$,1.2382,eV/atom,
Cs$_{3}$Ru$_{2}$Cl$_{9}$,0.4885999999999999,eV/atom,
BaP$_{8}$,0.8862999999999994,eV/atom,
AgMo$_{2}$P$_{3}$O$_{13}$,2.112,eV/atom,
NaH$_{2}$BrO$_{5}$,1.3121999999999998,eV/atom,
Ti$_{5}$FeSb$_{2}$,0.0,eV/atom,
Mo$_{2}$SBr$_{2}$,0.9874999999999998,eV/atom,
YMg$_{2}$Cu$_{9}$,0.0,eV/atom,
Pr$_{2}$MgNi$_{2}$,0.0,eV/atom,
Ba$_{3}$BPO$_{3}$,1.4649,eV/atom,
EuGe,0.0,eV/atom,
Sr$_{6}$B(PO$_{4}$)$_{5}$,4.8124,eV/atom,
BaSr$_{4}$U$_{3}$O$_{14}$,2.0759000000000003,eV/atom,
Ta$_{3}$As,0.0,eV/atom,
NbI$_{5}$,0.5982999999999998,eV/atom,
BaAgSeF,1.2644000000000002,eV/atom,
Ge(NF$_{3}$)$_{2}$,0.0,eV/atom,
Ca$_{2}$MnSbO$_{6}$,0.7032999999999996,eV/atom,
CdHg$_{2}$SO$_{6}$,1.3171,eV/atom,
Pb$_{3}$SO$_{6}$,2.9360000000000004,eV/atom,
HfCoSb,0.0,eV/atom,
Yb$_{14}$MnSb$_{11}$,0.0,eV/atom,
SbSe$_{3}$N$_{2}$Cl$_{7}$,1.699,eV/atom,
AgMo$_{3}$P$_{3}$O$_{16}$,1.5694000000000001,eV/atom,
K$_{2}$H$_{2}$C$_{3}$S$_{2}$O$_{7}$F$_{6}$,5.5227,eV/atom,[K+].[K+].O=S(=O)([O-])C(F)(F)C(F)(F)C(F)(F)S(=O)(=O)[O-].O
Ce$_{2}$NiB$_{10}$,0.0,eV/atom,
SbAsF$_{8}$,3.8632,eV/atom,
BaHI,2.8161,eV/atom,
Ca(BeAs)$_{2}$,0.6618999999999993,eV/atom,
VBiO$_{4}$,2.2590000000000003,eV/atom,
LaTe$_{2}$,0.0,eV/atom,
BaIn$_{2}$Pt,0.0,eV/atom,
Sr$_{2}$SO,2.1896000000000004,eV/atom,
Ho$_{3}$CuGeS$_{7}$,1.7591999999999999,eV/atom,
KSb(MoO$_{4}$)$_{2}$,2.5382000000000002,eV/atom,
EuC$_{6}$,0.0,eV/atom,
SmSb$_{2}$Au,0.0,eV/atom,
TiRe,0.0,eV/atom,
Sc$_{3}$(SiNi)$_{4}$,0.0,eV/atom,
RbPbF$_{3}$,3.0444999999999998,eV/atom,
NaZr$_{2}$PdF$_{11}$,0.0,eV/atom,
RbZr$_{6}$CCl$_{15}$,1.1281,eV/atom,
Sm$_{2}$GeRh$_{3}$,0.007299999999999862,eV/atom,
KAu(NO$_{3}$)$_{4}$,2.0172,eV/atom,
Yb(FeSi)$_{2}$,0.0,eV/atom,
CoBi$_{2}$SO$_{7}$,2.2110000000000003,eV/atom,
CeCoGe$_{3}$,0.0,eV/atom,
NbBr$_{3}$O,1.9611,eV/atom,
Sr$_{3}$P$_{14}$,1.8254000000000001,eV/atom,
NClO$_{3}$,0.6521000000000003,eV/atom,
TaPt$_{3}$,0.0,eV/atom,
ZrOs,0.0,eV/atom,
La$_{2}$TiO$_{5}$,3.2885999999999997,eV/atom,
CsTmSeCl$_{2}$O$_{3}$,4.3558,eV/atom,
Ca$_{2}$IN,2.3484999999999996,eV/atom,
NaC$_{4}$N$_{3}$,3.5561,eV/atom,
LiCaSn,0.0,eV/atom,
Ar,8.5108,eV/atom,[Ar]
IrN$_{2}$,0.0,eV/atom,
LiV$_{2}$O$_{5}$,0.27370000000000005,eV/atom,
CdI$_{2}$,2.3715,eV/atom,
Co$_{6}$C$_{13}$(SeO$_{6}$)$_{2}$,1.5538,eV/atom,
Ba$_{3}$Ce$_{2}$C$_{5}$O$_{15}$F$_{2}$,2.7666,eV/atom,
LiNiO$_{2}$,0.0,eV/atom,
Cu$_{2}$Sb,0.0,eV/atom,
Sc$_{2}$ZnS$_{4}$,0.5765000000000002,eV/atom,
Tm$_{2}$Pt,0.0,eV/atom,
Ca(BiO$_{2}$)$_{2}$,2.5433999999999997,eV/atom,
Mg$_{3}$Rh,0.0,eV/atom,
C,0.9238999999999997,eV/atom,[C]
Ba$_{6}$Zn$_{7}$F$_{26}$,4.4184,eV/atom,
Pr$_{3}$Co$_{29}$(Si$_{2}$B$_{5}$)$_{2}$,0.0037000000000002586,eV/atom,
NiMoP,0.0,eV/atom,
CaSO$_{6}$,0.22319999999999995,eV/atom,
La$_{2}$(ZnGe$_{2}$)$_{3}$,0.0,eV/atom,
ZnH$_{12}$(SO$_{6}$)$_{2}$,5.0235,eV/atom,
Ca$_{4}$MgAl$_{3}$,0.0,eV/atom,
PrSiRu,0.0,eV/atom,
Yb$_{3}$Ga$_{5}$O$_{12}$,0.0,eV/atom,
FeCoP,0.0,eV/atom,
LaTiO$_{3}$,0.0,eV/atom,
Er(GeRu)$_{2}$,0.0,eV/atom,
WXeOF$_{6}$,3.1180000000000003,eV/atom,
Cu(NF$_{2}$)$_{2}$,0.0,eV/atom,F[Cu]F.[NH4+].[NH4+]
Na$_{2}$Ni$_{2}$(B$_{4}$O$_{7}$)$_{3}$,3.7639000000000005,eV/atom,
Nd$_{3}$PO$_{7}$,4.27,eV/atom,
KBePO$_{4}$,5.2347,eV/atom,
P$_{3}$IrO$_{9}$,2.2494000000000005,eV/atom,
SnF$_{3}$,2.7195,eV/atom,
BaZrO$_{3}$,3.1193000000000004,eV/atom,
BaB$_{2}$(HO)$_{8}$,0.2518,eV/atom,
LuH$_{2}$ClO$_{2}$,4.8063,eV/atom,
AlBi,0.0,eV/atom,
Al$_{2}$Cu,0.0,eV/atom,
NbPd$_{3}$,0.0,eV/atom,
Y$_{6}$IrI$_{10}$,0.07249999999999979,eV/atom,
Tl$_{3}$Cd$_{2}$I$_{7}$,1.8253,eV/atom,
FeH$_{14}$C$_{3}$Br$_{3}$NO$_{2}$,3.7997,eV/atom,
Ce(CoAs)$_{2}$,0.0,eV/atom,
Yb$_{2}$Cu(GeO$_{3}$)$_{4}$,0.0,eV/atom,
K$_{4}$P$_{3}$,0.0,eV/atom,
Ba$_{5}$P$_{4}$,0.9365000000000001,eV/atom,
CsVO$_{3}$,3.1093,eV/atom,
Ba$_{7}$Al$_{64}$O$_{103}$,4.2537,eV/atom,
KZnP,0.8395999999999999,eV/atom,
Ca$_{3}$Be$_{2}$P$_{4}$(HO$_{2}$)$_{10}$,5.1849,eV/atom,
KTa(CuSe$_{2}$)$_{2}$,1.6646,eV/atom,
LaTeAs,0.12230000000000008,eV/atom,
KAlO$_{2}$,2.9327,eV/atom,
Tm$_{4}$InRh,0.0,eV/atom,
K$_{2}$Re,0.0,eV/atom,
Ba$_{3}$LiIr$_{2}$O$_{9}$,0.0,eV/atom,
CdNi,0.0,eV/atom,
RbAg$_{3}$Se$_{2}$,0.06259999999999999,eV/atom,
Cu$_{3}$(PO$_{4}$)$_{2}$,0.0,eV/atom,
USnPd,0.0,eV/atom,
IrC$_{4}$,0.0,eV/atom,
SiO$_{2}$,5.484,eV/atom,
Eu$_{3}$Sb$_{4}$S$_{9}$,0.0,eV/atom,
ScTeO$_{3}$F,3.3208,eV/atom,
OsCl$_{2}$O,0.7992999999999997,eV/atom,
Li$_{2}$GeO$_{3}$,3.568,eV/atom,
Tl$_{6}$SCl$_{4}$,1.8016,eV/atom,
MnC$_{6}$S$_{2}$NO$_{5}$F$_{6}$,3.0452,eV/atom,
SnCl$_{4}$,3.5509999999999997,eV/atom,
Yb$_{5}$Pd$_{2}$,0.0,eV/atom,
LiAlSiO$_{4}$,4.7985999999999995,eV/atom,
Mg$_{2}$PClO$_{4}$,5.0406,eV/atom,
Zr$_{3}$P,0.0,eV/atom,
Mg$_{2}$H$_{2}$O$_{3}$,3.5667,eV/atom,
Rb$_{4}$Cu$_{5}$Cl$_{9}$,1.7887,eV/atom,
B$_{2}$Pb$_{6}$SO$_{12}$,2.7033000000000005,eV/atom,
KC,0.5801000000000001,eV/atom,
Y(CoB)$_{2}$,0.0,eV/atom,
LaSbTe,0.0,eV/atom,
LiFeAs,0.0,eV/atom,
KMnCl$_{3}$,1.3655,eV/atom,
Sc$_{2}$(MoO$_{4}$)$_{3}$,3.5309,eV/atom,
K$_{3}$NbO$_{8}$,2.5984000000000003,eV/atom,
Rb$_{3}$As$_{7}$,1.4569999999999999,eV/atom,
SiC,1.953100000000001,eV/atom,
Ba$_{3}$In(BO$_{2}$)$_{9}$,4.7243,eV/atom,
KInBr$_{3}$,2.2777,eV/atom,
UCuSn,0.0,eV/atom,
Ba$_{2}$EuCu$_{3}$O$_{7}$,0.0,eV/atom,
K$_{2}$Mn(PSe$_{3}$)$_{2}$,0.7643,eV/atom,
Rb$_{2}$NaCrF$_{6}$,3.9409,eV/atom,
GeH$_{10}$(N$_{2}$F$_{3}$)$_{2}$,4.8966,eV/atom,
Rb$_{4}$B$_{2}$S$_{4}$O$_{17}$,5.153700000000001,eV/atom,
TlIn(MoO$_{4}$)$_{2}$,3.6347000000000005,eV/atom,
Tb(GaFe)$_{6}$,0.0,eV/atom,
Ga$_{3}$Ru,0.3786999999999998,eV/atom,
AlBiO$_{3}$,2.977899999999999,eV/atom,
CsTlF$_{3}$,2.1736,eV/atom,
Si,0.45169999999999977,eV/atom,
CaTeO$_{3}$,2.9347000000000003,eV/atom,
Sr$_{2}$TaGaO$_{6}$,4.0418,eV/atom,
LiFeSiO$_{4}$,2.963,eV/atom,
AsCl$_{5}$,1.4376,eV/atom,
Sr$_{2}$IrO$_{4}$,0.0,eV/atom,
NaMnSe$_{2}$,0.0,eV/atom,
Nd(GePt)$_{2}$,0.0,eV/atom,
Ce$_{2}$Fe$_{17}$,0.0,eV/atom,
NiAgSe$_{2}$,0.0,eV/atom,
Na$_{3}$Mn$_{4}$(TeO$_{6}$)$_{2}$,0.0,eV/atom,
CsW$_{3}$Br$_{3}$Cl$_{4}$,2.9901999999999997,eV/atom,
Zr$_{2}$O,0.0,eV/atom,
Er$_{2}$ReC$_{2}$,0.0,eV/atom,
Zr$_{2}$(NiP)$_{3}$,0.0,eV/atom,
P$_{5}$H$_{5}$N$_{6}$(Cl$_{4}$O)$_{2}$,3.8886,eV/atom,
Li$_{3}$DySb$_{2}$,0.0,eV/atom,
Sm$_{7}$Pd$_{3}$,0.0,eV/atom,
Li$_{13}$In$_{3}$,0.0,eV/atom,
KLaMnWO$_{6}$,2.4182,eV/atom,
SrC$_{2}$(SN)$_{2}$,3.7833,eV/atom,
CsTeSe$_{3}$,0.9750000000000001,eV/atom,
BaSnS$_{2}$,1.6394000000000002,eV/atom,
CoPH$_{16}$NO$_{10}$,3.2407,eV/atom,
La$_{5}$Sn$_{3}$Cl,0,eV/atom,
YbCeS$_{3}$,0.26620000000000044,eV/atom,
Fe$_{2}$GeSe$_{4}$,0.0,eV/atom,
HoH$_{2}$,0.0,eV/atom,
CeClO,0.0,eV/atom,
Eu(AsRu)$_{2}$,0.0,eV/atom,
Ba$_{2}$NdCu$_{3}$O$_{7}$,0.0,eV/atom,
Nd$_{2}$Te$_{4}$MoO$_{14}$,3.1903999999999995,eV/atom,
NdIr$_{2}$,0.0,eV/atom,
TbSi$_{3}$Rh,0.0,eV/atom,
Ba$_{2}$Pd(OF)$_{2}$,0.0,eV/atom,
HfPt$_{3}$,0.0,eV/atom,
Ba$_{6}$Ge$_{25}$,0.023900000000000254,eV/atom,
NiH$_{12}$SO$_{10}$,5.0600000000000005,eV/atom,
ZnCoH$_{18}$N$_{6}$Cl$_{5}$,2.6896,eV/atom,
V$_{3}$GeN,0.0,eV/atom,
Rb$_{2}$LiTaS$_{4}$,2.7182,eV/atom,
Sr$_{2}$SmSbO$_{6}$,3.6039,eV/atom,
Na$_{15}$Pb$_{4}$,0.0,eV/atom,
U$_{4}$Ga$_{12}$Pd,0.0,eV/atom,
NiH$_{32}$C$_{8}$S$_{4}$(NO$_{5}$)$_{2}$,3.2272,eV/atom,
Cu$_{2}$H$_{3}$NO$_{6}$,0.0,eV/atom,[Cu+4].[OH-].[OH-].[OH-].O=[N+]([O-])[O-]
ThGeTe,0.0,eV/atom,
ZnBr$_{2}$,3.2848,eV/atom,
SrHBr,3.8289,eV/atom,
SmH$_{32}$C$_{8}$N$_{4}$Cl$_{7}$,4.8246,eV/atom,
EuPd$_{2}$,0.0,eV/atom,
UCO$_{5}$,2.2607999999999997,eV/atom,
K(CuSe)$_{2}$,0.0,eV/atom,
Ba$_{4}$Y$_{2}$Cu$_{6}$O$_{13}$,0.0,eV/atom,
RbMnO$_{4}$,2.1315,eV/atom,
H$_{3}$CSN(ClO)$_{2}$,2.6254,eV/atom,
Tb$_{2}$MnNiO$_{6}$,1.6879,eV/atom,
TmB$_{2}$Ru$_{3}$,0.0,eV/atom,
BaSm$_{2}$PdO$_{5}$,2.1423,eV/atom,
Na$_{4}$Ti$_{5}$O$_{12}$,2.4965,eV/atom,
K$_{2}$Y$_{4}$Sn$_{2}$S$_{11}$,1.5806,eV/atom,
Tm$_{8}$Ga$_{3}$Co,0.025000000000000355,eV/atom,
ZnCl$_{2}$,3.8762999999999996,eV/atom,
TmNiSb,0.2526999999999999,eV/atom,
Ca$_{2}$CdPd$_{2}$,0.0,eV/atom,
AsS$_{4}$N$_{4}$F$_{5}$,1.8972000000000002,eV/atom,
KLi$_{2}$As,0.6878,eV/atom,
GdP$_{2}$H$_{9}$O$_{10}$,2.8792,eV/atom,
Ti$_{2}$In$_{5}$,0.0,eV/atom,
Sb$_{8}$Br$_{2}$O$_{11}$,2.6698,eV/atom,
BaBrF,4.8829,eV/atom,
K$_{2}$NaS$_{2}$ClO$_{6}$,5.092,eV/atom,
Rb$_{2}$PtSe$_{2}$,1.0034,eV/atom,
MoOF$_{4}$,4.1739,eV/atom,
Ce(NiSn)$_{2}$,0.001300000000000523,eV/atom,
Nd$_{2}$Zr$_{2}$O$_{7}$,3.3252,eV/atom,
RbNdSe$_{2}$,1.8958,eV/atom,
Ta$_{3}$(Se$_{4}$Br$_{3}$)$_{2}$,0.0,eV/atom,
V$_{3}$B$_{4}$,0.0,eV/atom,
CaSiO$_{3}$,4.726,eV/atom,
Cs$_{3}$AlO$_{3}$,2.2692000000000005,eV/atom,
Sr$_{5}$(ReO$_{6}$)$_{2}$,2.1062000000000003,eV/atom,
Er$_{3}$(P$_{3}$Pd$_{10}$)$_{2}$,0.0,eV/atom,
TmInAu,0.0,eV/atom,
CaInPt,0.0,eV/atom,
Te$_{6}$Br$_{2}$O$_{11}$,2.5231000000000003,eV/atom,
ScZnMo$_{3}$O$_{8}$,0.8052000000000001,eV/atom,
La(FeP$_{3}$)$_{4}$,0.0,eV/atom,
KHCO$_{3}$,5.0058,eV/atom,
YbNiSn,0.0,eV/atom,
Sr$_{4}$B$_{14}$O$_{25}$,5.206200000000001,eV/atom,
Tm$_{5}$Mg$_{24}$,0.0,eV/atom,
RbCr$_{3}$O$_{8}$,1.8319,eV/atom,
Cr$_{3}$AuO$_{8}$,1.1076000000000001,eV/atom,
BaMn$_{2}$V$_{2}$O$_{8}$,2.1893,eV/atom,
UFe$_{5}$Si$_{3}$,0.0,eV/atom,
Sm$_{3}$Tl$_{5}$,0.0,eV/atom,
Sr$_{2}$GdCoCu$_{2}$O$_{7}$,0.0,eV/atom,
BaGaGe,0.0,eV/atom,
ICl,1.1579,eV/atom,
SiO$_{2}$,1.0636,eV/atom,
Sr(H$_{2}$N)$_{2}$,2.3795,eV/atom,
Na$_{4}$Ni$_{3}$P$_{4}$O$_{15}$,3.6834,eV/atom,
Pr(AlGa)$_{2}$,0.0,eV/atom,
CrP$_{2}$Pb$_{5}$O$_{13}$,2.1529000000000003,eV/atom,
RbVOF$_{3}$,2.6721,eV/atom,
Zr$_{2}$SN$_{2}$,0.5502000000000002,eV/atom,
CaZr$_{4}$O$_{9}$,3.8366000000000002,eV/atom,
ZrTi(PbO$_{3}$)$_{2}$,2.7395,eV/atom,
AgBO$_{2}$,1.1603999999999999,eV/atom,
ScCrO$_{3}$,2.4812000000000003,eV/atom,
Sc$_{2}$InC,0.0,eV/atom,
Sb$_{2}$PbO$_{6}$,1.9264999999999999,eV/atom,
K$_{2}$U$_{2}$MoO$_{10}$,1.6901,eV/atom,
H$_{2}$SO$_{4}$,6.027,eV/atom,
Cu$_{5}$Si(SbO$_{6}$)$_{2}$,0.1849999999999996,eV/atom,
Ba$_{3}$Ho$_{2}$Cu$_{2}$PtO$_{10}$,0.3026,eV/atom,
SiPt$_{2}$,0.0,eV/atom,
Rb$_{3}$TlCl$_{6}$,2.274,eV/atom,
Rb$_{2}$BaNb$_{2}$Se$_{11}$,1.5116999999999998,eV/atom,
TbGe,0.0,eV/atom,
H$_{2}$C$_{3}$(N$_{2}$Cl)$_{2}$,3.6838,eV/atom,ClC=1N=C(Cl)N=C(N1)N
KB,0.0,eV/atom,
EuP$_{3}$,0.0,eV/atom,
Si$_{5}$Rh$_{4}$,0.0,eV/atom,
Rb$_{2}$PaF$_{7}$,3.9557,eV/atom,
CrBi$_{12}$Mo$_{4}$PbO$_{34}$,2.5084000000000004,eV/atom,
Ag$_{3}$SeNO$_{3}$,0.5563,eV/atom,
Cs$_{3}$Mn$_{4}$(PO$_{3}$)$_{12}$,4.0888,eV/atom,
Tc$_{2}$O$_{5}$F$_{4}$,1.8722,eV/atom,
Hg(CO$_{2}$)$_{2}$,2.6179,eV/atom,
Hg$_{7}$(PO$_{5}$)$_{2}$,1.4983000000000002,eV/atom,
CuBiSCl$_{2}$,0.6101000000000001,eV/atom,
SrBr$_{2}$,4.4697000000000005,eV/atom,
Ba$_{2}$Sm(CuO$_{2}$)$_{3}$,0.0,eV/atom,
Ca$_{3}$Ga$_{4}$O$_{9}$,2.6392999999999995,eV/atom,
U$_{2}$Mn$_{3}$Si$_{5}$,0.0,eV/atom,
HoGa$_{5}$Co,0.0,eV/atom,
TbPd,0.0,eV/atom,
VFeCoSb,0.0,eV/atom,
YbOs$_{2}$,0.0,eV/atom,
Lu(Ni$_{2}$P)$_{2}$,0.0,eV/atom,
Yb$_{3}$Si$_{2}$ClO$_{8}$,0.0,eV/atom,
B$_{6}$O,1.8524000000000003,eV/atom,
UH$_{12}$(ClO$_{2}$)$_{3}$,0.5445000000000002,eV/atom,[Cl-].[Cl-].[Cl-].[U+3].O.O.O.O.O.O
PrSnRu,0.0,eV/atom,
DyCuSi,0.0,eV/atom,
LiMg$_{2}$H$_{7}$Ru,3.1510000000000002,eV/atom,
Ca$_{2}$BAsO$_{8}$,0.0,eV/atom,
Dy$_{4}$CdRh,0.0,eV/atom,
Ca$_{3}$N$_{2}$,1.1111,eV/atom,
Na$_{2}$LiY(Si$_{2}$O$_{5}$)$_{3}$,4.6025,eV/atom,
Na$_{3}$P(SO)$_{2}$,3.2791999999999994,eV/atom,
CS$_{2}$NClO$_{2}$,2.7073,eV/atom,
Dy$_{2}$B$_{4}$O$_{9}$,5.6211,eV/atom,
Na$_{2}$MnO$_{2}$,0.2702,eV/atom,
Zn$_{3}$P$_{3}$H$_{10}$C$_{2}$NO$_{13}$,0.7487,eV/atom,
NaSm$_{3}$SiS$_{7}$,2.0169,eV/atom,
CsNdHgSe$_{3}$,1.3561000000000003,eV/atom,
Li$_{4}$CO$_{4}$,5.9251000000000005,eV/atom,
CuBiPtS$_{3}$,0.4748999999999999,eV/atom,
CsSbTe$_{6}$(OF$_{5}$)$_{6}$,2.5475999999999996,eV/atom,
MnTeC$_{5}$O$_{6}$F$_{5}$,2.1447000000000003,eV/atom,
La$_{3}$Co,0.0,eV/atom,
CsV$_{3}$(TeO$_{6}$)$_{2}$,2.3111,eV/atom,
OsO$_{2}$,0.0,eV/atom,
LiY$_{6}$B$_{3}$O$_{14}$,4.665100000000001,eV/atom,
Cs$_{2}$U(Br$_{2}$O)$_{2}$,1.9396,eV/atom,
Ba$_{2}$ScFeAsO$_{3}$,0.0,eV/atom,
Ca$_{5}$Ge$_{3}$H,0.0,eV/atom,
Rb$_{2}$(NbCl$_{3}$)$_{3}$,1.0958,eV/atom,
Bi$_{3}$ClO$_{4}$,2.3000000000000003,eV/atom,
BaMgP$_{2}$O$_{7}$,5.322800000000001,eV/atom,
Mn(AlS$_{2}$)$_{2}$,1.0181000000000004,eV/atom,
MnHgC$_{4}$(SN)$_{4}$,1.6619000000000002,eV/atom,
RbGdSe$_{2}$,1.3089000000000002,eV/atom,
U$_{8}$FeS$_{17}$,0.0,eV/atom,
IrN,0.0,eV/atom,
Ca(BC)$_{2}$,0.0,eV/atom,
NaAgF$_{4}$,1.5463999999999998,eV/atom,
LaF$_{3}$,5.2027,eV/atom,
V$_{2}$Cd(PO$_{7}$)$_{2}$,0.1791,eV/atom,
In$_{2}$O$_{3}$,0.9578999999999995,eV/atom,
Ca$_{4}$SmB$_{3}$O$_{10}$,4.3844,eV/atom,
UH$_{10}$N$_{2}$O$_{7}$,2.4049,eV/atom,O=[U]=O.O=C(N)C1C=CC=C(C)C1C.O.O.O
Ba(FeBr$_{4}$)$_{2}$,0.8935000000000001,eV/atom,
KPO$_{4}$,0.4901,eV/atom,
LiUNbO$_{6}$,1.7534000000000003,eV/atom,
LiTm$_{2}$Cl$_{5}$,0.15860000000000074,eV/atom,
GaH$_{15}$N$_{4}$(OF$_{3}$)$_{2}$,1.5268000000000002,eV/atom,
CaSnAu,0.0,eV/atom,
YZnPO,1.3074000000000003,eV/atom,
Mn$_{2}$SiSe$_{4}$,0.08139999999999992,eV/atom,
H$_{12}$W$_{3}$C$_{4}$S$_{2}$Cl$_{9}$O$_{2}$,0.008500000000000063,eV/atom,
Ca(PRh)$_{2}$,0.0,eV/atom,
K$_{2}$SrNi(NO$_{2}$)$_{6}$,2.1971,eV/atom,
LiSn$_{4}$Ir,0.0,eV/atom,
P(WO$_{4}$)$_{2}$,1.1591000000000002,eV/atom,
YbCu$_{2}$,0.0,eV/atom,
NaCaVO$_{4}$,3.7316,eV/atom,
CuAsSe$_{2}$,0.3247,eV/atom,
B$_{6}$H$_{21}$C$_{5}$N$_{2}$O,4.4939,eV/atom,
Bi$_{2}$Te$_{4}$Pb,0.4903000000000004,eV/atom,
HfPbO$_{3}$,2.7161,eV/atom,
Ba(CuAs)$_{2}$,0.0,eV/atom,
Sm$_{3}$Se$_{4}$,0.0,eV/atom,
CoSO$_{4}$,2.7685999999999997,eV/atom,