formula,Property band_gap,Property band_gap units,Property SMILES
CrCl$_{2}$,0.7019000000000002,eV/atom,
ZnS,2.0323,eV/atom,
Cs$_{2}$Li$_{3}$F$_{5}$,5.618399999999999,eV/atom,
YbMgPb,0.0,eV/atom,
Cs$_{3}$B$_{12}$H$_{12}$Br,4.7562,eV/atom,
AgBr,0.12139999999999995,eV/atom,
Te$_{3}$As$_{2}$(SF$_{4}$)$_{3}$,2.0706,eV/atom,
H$_{8}$C$_{3}$N$_{2}$O,4.6949000000000005,eV/atom,O=C(N)N(C)C
Ta$_{4}$AlN$_{3}$,0.0,eV/atom,
He,17.7667,eV/atom,[He]
Sr(SiAu)$_{2}$,0.0,eV/atom,
LiCaUF$_{8}$,0.3838999999999999,eV/atom,
Pr$_{6}$CoBr$_{10}$,0.09879999999999978,eV/atom,
Li$_{2}$NbF$_{6}$,0.0,eV/atom,
K$_{3}$CaV$_{5}$O$_{15}$,2.7283,eV/atom,
Ba$_{2}$CuTeO$_{6}$,0.17870000000000008,eV/atom,
EuAl$_{3}$(BO$_{3}$)$_{4}$,0.0,eV/atom,
FeH$_{6}$SO$_{6}$,1.4491,eV/atom,
Gd$_{3}$SbO$_{3}$,0.07899999999999974,eV/atom,
CsTaPS$_{6}$,1.7898999999999998,eV/atom,
DyBiPt,0.0,eV/atom,
LiMnF$_{4}$,1.855,eV/atom,
La$_{6}$S$_{4}$BrN$_{3}$,1.4091000000000005,eV/atom,
Tb$_{5}$Tl$_{3}$,0.0,eV/atom,
Cu$_{3}$H$_{4}$SO$_{8}$,0.0,eV/atom,
IrF$_{3}$,0.9249999999999998,eV/atom,
Li$_{2}$GePbS$_{4}$,2.2649000000000004,eV/atom,
SbTe(ClF$_{2}$)$_{3}$,3.747,eV/atom,
PtSe$_{2}$,0.8273999999999999,eV/atom,
Yb$_{4}$Ni$_{13}$C$_{4}$,0.0,eV/atom,
PrN,0.0,eV/atom,
Sn$_{2}$SI$_{2}$,1.6146000000000003,eV/atom,
AlVFeCo,0.0,eV/atom,
Ni$_{5}$Sn(BO$_{5}$)$_{2}$,2.5999,eV/atom,
NpBr$_{3}$,0.006800000000000139,eV/atom,
Na$_{2}$CaVP$_{2}$O$_{9}$,2.5585999999999998,eV/atom,
Y(FeB)$_{2}$,0.0,eV/atom,
KAs$_{4}$ClO$_{6}$,3.0465,eV/atom,
Ta$_{2}$Sn$_{2}$O$_{7}$,1.4851999999999999,eV/atom,
Bi$_{3}$Pt$_{3}$O$_{11}$,0.0,eV/atom,
MnFe$_{2}$Ge,0.0,eV/atom,
NaC,3.3846,eV/atom,
MnNiAs,0.0,eV/atom,
TbNi$_{5}$,0.0,eV/atom,
Ba$_{3}$Ce$_{2}$C$_{5}$O$_{15}$F$_{2}$,0.0,eV/atom,
SrGa$_{2}$(SiO$_{4}$)$_{2}$,3.8803,eV/atom,
Co$_{3}$Se$_{4}$(ClO$_{5}$)$_{2}$,2.6387,eV/atom,
ZrCrP,0.0,eV/atom,
CeAl$_{7}$Au$_{3}$,0.0,eV/atom,
Ga$_{3}$Ni$_{2}$,0.0,eV/atom,
TmTl$_{3}$,0.0,eV/atom,
RbB$_{3}$O$_{5}$,5.2118,eV/atom,
LaB$_{2}$Ir$_{3}$,0.0,eV/atom,
K$_{3}$BiO$_{3}$,2.9552,eV/atom,
Te$_{2}$I,0.6558000000000002,eV/atom,
Na$_{4}$Mn$_{3}$P$_{4}$O$_{15}$,3.2957999999999994,eV/atom,
CsNaB$_{4}$H$_{12}$O$_{13}$,4.9524,eV/atom,
Ba$_{3}$(CdSb$_{2}$)$_{2}$,0.0,eV/atom,
SmSi$_{3}$Rh,0.0,eV/atom,
Ce$_{2}$PPt$_{8}$,0.0,eV/atom,
B$_{5}$H$_{12}$NO$_{12}$,5.5022,eV/atom,
GdAg$_{2}$,2.999999999997449E-4,eV/atom,
BaCoN,0.02619999999999978,eV/atom,
S$_{2}$NO,2.2777,eV/atom,
SiO$_{2}$,5.6294,eV/atom,
Li$_{8}$Nb$_{2}$O$_{9}$,3.2086,eV/atom,
Eu(SiPd)$_{2}$,0.0,eV/atom,
Li$_{7}$Sn$_{2}$,0.0,eV/atom,
KEu(GeO$_{3}$)$_{2}$,0.0,eV/atom,
EuZr$_{6}$(PO$_{4}$)$_{9}$,0.0,eV/atom,
Tm(Mo$_{3}$Se$_{4}$)$_{2}$,0.0,eV/atom,
K$_{3}$Cr$_{2}$(PS$_{4}$)$_{3}$,1.2898,eV/atom,
XeF$_{6}$,2.5833,eV/atom,
BaZnPb,0.0,eV/atom,
TmTl,0.0,eV/atom,
Eu(GaS$_{2}$)$_{2}$,0.2873000000000001,eV/atom,
NaZr$_{2}$FeF$_{11}$,3.4179,eV/atom,
TbNiSb$_{2}$,0.0,eV/atom,
Cs(CO)$_{2}$,2.6906999999999996,eV/atom,
BiSCl,1.9601000000000002,eV/atom,
Mo$_{4}$O$_{11}$,0.18979999999999997,eV/atom,
Zn$_{11}$Ir$_{2}$,0.0,eV/atom,
CaNiP$_{2}$O$_{7}$,3.8717,eV/atom,
CeSi$_{4}$Ni$_{9}$,0,eV/atom,
InHO$_{2}$,1.5505000000000004,eV/atom,
U$_{2}$InPd$_{2}$,0.0,eV/atom,
CuH$_{11}$C$_{4}$(NO$_{5}$)$_{2}$,0.0,eV/atom,
NaFe$_{2}$(MoO$_{4}$)$_{3}$,0.8429,eV/atom,
Sb$_{4}$Pb$_{5}$S$_{11}$,1.3758,eV/atom,
K$_{2}$EuSiSe$_{5}$,0.3805999999999998,eV/atom,
SrTl$_{2}$O$_{4}$,0.08289999999999997,eV/atom,
Sm$_{2}$O$_{3}$,3.7443000000000004,eV/atom,
PuPd$_{3}$,0.0,eV/atom,
Ba$_{2}$YReO$_{6}$,0.0,eV/atom,
MnSi,0.0,eV/atom,
RhF$_{3}$,0.5624,eV/atom,
CsClO$_{4}$,5.444000000000001,eV/atom,
IOF$_{3}$,3.6275000000000004,eV/atom,
LiIn(MoO$_{4}$)$_{2}$,3.6246,eV/atom,
MnAs$_{2}$S$_{4}$(NF$_{6}$)$_{4}$,3.4329,eV/atom,
Ba$_{15}$Fe$_{7}$S$_{25}$,0.020999999999999908,eV/atom,
Th(MoO$_{4}$)$_{2}$,3.7356,eV/atom,
Nd$_{5}$Ge$_{3}$,0.0,eV/atom,
FeTe$_{2}$,0.0,eV/atom,
BaTi$_{2}$Bi$_{2}$O,0.0,eV/atom,
Sr$_{3}$In,0.0,eV/atom,
P$_{4}$O$_{7}$,4.1519,eV/atom,
KEuPdO$_{3}$,0.0,eV/atom,
KTmI$_{3}$,0.0,eV/atom,
Ca$_{2}$FeClO$_{8}$,0.0,eV/atom,
Sr$_{3}$(GeN)$_{2}$,0.0,eV/atom,
TiInNi$_{2}$,0.0,eV/atom,
Te$_{2}$AuI,0.0,eV/atom,
Ca(AgGe)$_{2}$,0.0,eV/atom,
USi$_{3}$Ir,0.0,eV/atom,
LiBeH$_{8}$CNOF$_{4}$,5.5732,eV/atom,
NaMoPO$_{6}$,2.7291,eV/atom,
YClO,4.270700000000001,eV/atom,
BaNa(B$_{3}$O$_{5}$)$_{3}$,5.5009999999999994,eV/atom,
KPH$_{5}$C$_{2}$S$_{2}$(NO)$_{3}$,3.4045,eV/atom,
K$_{2}$SrCdSb$_{2}$,0.31679999999999975,eV/atom,
Rb$_{3}$Nb$_{2}$Br$_{9}$,0.0,eV/atom,
SeO$_{2}$,3.4194,eV/atom,
Sm$_{2}$Si$_{2}$O$_{7}$,5.105700000000001,eV/atom,
BaLaSi$_{2}$,0.0,eV/atom,
Ce(CoP)$_{2}$,0.0,eV/atom,
Yb$_{3}$Fe$_{5}$O$_{12}$,0.0,eV/atom,
Ar,8.5064,eV/atom,
Ba$_{2}$CdReO$_{6}$,0.0,eV/atom,
Y$_{5}$Bi$_{3}$,0.0,eV/atom,
Sc(US$_{2}$)$_{3}$,0.0,eV/atom,
GaAg(PSe$_{3}$)$_{2}$,0.6647999999999996,eV/atom,
Cs(FeSb)$_{2}$,0.0,eV/atom,
TmB$_{6}$,0.0,eV/atom,
NaMgPO$_{4}$,4.9274000000000004,eV/atom,
Pr$_{8}$Ga$_{3}$Co,0.0,eV/atom,
UMoO$_{5}$,0.03629999999999978,eV/atom,
Ba$_{2}$Nd$_{2}$Si$_{4}$O$_{13}$,5.046200000000001,eV/atom,
Na$_{8}$Fe$_{2}$O$_{7}$,2.1090999999999998,eV/atom,
Fe$_{5}$Si$_{3}$,0.0,eV/atom,
MgPd$_{3}$,0.0,eV/atom,
Na$_{2}$Be(SiO$_{3}$)$_{2}$,4.0017000000000005,eV/atom,
CrCuO$_{4}$,0.03970000000000007,eV/atom,
KGd(PO$_{3}$)$_{4}$,3.1193,eV/atom,
SmB$_{6}$,0.0,eV/atom,
LiMn(PO$_{3}$)$_{3}$,4.3259,eV/atom,
Li$_{2}$MnO$_{2}$,2.4357,eV/atom,
CaPd,0.0,eV/atom,
BSF$_{7}$,4.9968,eV/atom,
Rb$_{2}$Hg$_{2}$PdCl$_{8}$,1.7546,eV/atom,
Sr$_{2}$AuN,0.0,eV/atom,
BaCdO$_{2}$,0.9776000000000002,eV/atom,
CaTl,0.0,eV/atom,
SmN,0.0,eV/atom,
ErGa$_{2}$Pd,0.0,eV/atom,
Sr$_{4}$Al$_{14}$O$_{25}$,3.9458999999999995,eV/atom,
MnInBr$_{3}$,1.6239000000000001,eV/atom,
TlCr$_{3}$O$_{8}$,1.8267,eV/atom,
Ta$_{4}$Se$_{9}$I$_{8}$,0.8800000000000001,eV/atom,
Nd$_{10}$S$_{19}$,0.5009000000000006,eV/atom,
Ga$_{7}$Te$_{10}$,0.8714,eV/atom,
Hf$_{2}$Ni$_{2}$Sn,0.0,eV/atom,
Ti(SeO$_{3}$)$_{2}$,2.4445,eV/atom,
H$_{5}$(NO)$_{3}$,3.2338,eV/atom,O=[N+]([O-])[O-].N[NH3+]
Ba$_{2}$Bi$_{2}$Se$_{3}$O$_{2}$,1.4200999999999997,eV/atom,
Eu(Mo$_{3}$S$_{4}$)$_{2}$,0,eV/atom,
CeCdAu,0.0,eV/atom,
La$_{3}$In,0.0,eV/atom,
Sr$_{6}$Ga$_{5}$N,0,eV/atom,
K$_{14}$In$_{4}$O$_{13}$,1.8377999999999997,eV/atom,
TiFeSi$_{2}$,0.010799999999999699,eV/atom,
ZnWO$_{4}$,3.2609000000000004,eV/atom,
InCuSe$_{2}$,0.0045999999999999375,eV/atom,
TmN,0.15669999999999984,eV/atom,
La$_{2}$InCu$_{2}$,0.0,eV/atom,
Ca$_{7}$Ge$_{6}$,0.0,eV/atom,
LiNbGeO$_{5}$,3.3815,eV/atom,
PuAs,0.0,eV/atom,
ErNi$_{3}$,0.0,eV/atom,
Y$_{4}$AlSiNO$_{8}$,3.7659000000000002,eV/atom,
Rb$_{2}$Ge$_{4}$O$_{9}$,2.8753,eV/atom,
La(AsIr)$_{2}$,0.0,eV/atom,
Li$_{4}$CO$_{4}$,3.9008000000000003,eV/atom,
Cs$_{2}$K$_{4}$Fe$_{2}$O$_{5}$,1.5864999999999998,eV/atom,
ThGeO$_{4}$,4.0145,eV/atom,
YIn$_{5}$Co,0.0,eV/atom,
SnH$_{4}$(ClO)$_{2}$,3.8242000000000003,eV/atom,[H]O[H].[H]O[H].Cl[Sn](Cl)(Cl)Cl
CoO$_{2}$,1.3057999999999996,eV/atom,
H$_{8}$AuC$_{2}$S$_{2}$BrN$_{4}$,3.1406,eV/atom,
NdPt,0.0,eV/atom,
KPPbS$_{4}$,2.3165999999999998,eV/atom,
BaU(SeO$_{4}$)$_{2}$,0.4181999999999999,eV/atom,
TbMg$_{2}$,0.0,eV/atom,
CsMoO$_{2}$F$_{3}$,3.4442,eV/atom,
Al$_{45}$V$_{7}$,0.0,eV/atom,
Rb$_{3}$V$_{2}$Br$_{9}$,0.0,eV/atom,
LiGaPdF$_{6}$,0.9339999999999999,eV/atom,
CrSb$_{2}$H$_{12}$(C$_{2}$O)$_{4}$,2.2893000000000003,eV/atom,
Ho$_{3}$CuSnS$_{7}$,1.4608999999999996,eV/atom,
VCuO$_{3}$,0.6943999999999999,eV/atom,
CoO,0.0045999999999999375,eV/atom,
Na$_{2}$SiF$_{6}$,6.8676,eV/atom,
LiCd$_{2}$HSe$_{2}$O$_{7}$,3.5103999999999997,eV/atom,
SrMgSn,0.0,eV/atom,
Rb(In$_{3}$Au$_{2}$)$_{2}$,0.0,eV/atom,
UCoP$_{2}$,0.0,eV/atom,
Ba$_{2}$Bi,0.0,eV/atom,
Er(CoB)$_{2}$,0.0,eV/atom,
TcC$_{4}$IO$_{4}$,2.3319,eV/atom,
Ge$_{3}$Ir$_{2}$Se$_{3}$,0.5894000000000004,eV/atom,
Sm$_{5}$Co$_{2}$,0.0,eV/atom,
LiAlS$_{3}$(Cl$_{2}$O$_{3}$)$_{2}$,2.2856,eV/atom,
Sr(PO$_{3}$)$_{2}$,5.4197999999999995,eV/atom,
K$_{3}$IO,1.0263999999999998,eV/atom,
Yb$_{2}$MoO$_{6}$,0.0,eV/atom,
Dy$_{2}$(Ga$_{3}$Ru)$_{3}$,0.0,eV/atom,
CsNaTe,1.9689,eV/atom,
RbTcO$_{4}$,3.2685,eV/atom,
P$_{4}$S$_{3}$I$_{2}$,2.2079,eV/atom,
LaBi,0.0,eV/atom,
Li$_{2}$SnAu,0.0,eV/atom,
HoHSe,1.4980999999999995,eV/atom,
Ag$_{8}$GeS$_{6}$,0.6102000000000003,eV/atom,
HfSiPt,0.0,eV/atom,
CsNb$_{6}$I$_{11}$,0.0,eV/atom,
Zr$_{6}$Ni(SnH$_{5}$)$_{2}$,0.0,eV/atom,
Fe$_{2}$(MoO$_{4}$)$_{3}$,2.4304,eV/atom,
In$_{2}$Ag$_{2}$GeSe$_{6}$,0.4323999999999999,eV/atom,
ScCu$_{4}$Sn,0.0,eV/atom,
La$_{2}$Fe$_{14}$C,0.0045999999999999375,eV/atom,
BAs$_{5}$(Pb$_{3}$O$_{10}$)$_{2}$,2.9515999999999996,eV/atom,
Nb$_{5}$(NiP)$_{4}$,0.0,eV/atom,
Rb$_{3}$AgO$_{2}$,1.5831,eV/atom,
Cd(BO$_{2}$)$_{2}$,3.3430999999999997,eV/atom,
Na$_{5}$Mn$_{3}$F$_{14}$,1.3818000000000001,eV/atom,
SbSI,1.5051,eV/atom,
UFeGe,0.0,eV/atom,
U$_{6}$Fe,0.0,eV/atom,
K$_{2}$PbO$_{3}$,1.1332,eV/atom,
MoPRu,0.0,eV/atom,
CdPd,0.0,eV/atom,
Cd$_{13}$I$_{28}$,0.0,eV/atom,
Te$_{2}$Ru,0.2829999999999995,eV/atom,
Ba$_{2}$MgSi$_{2}$O$_{7}$,4.4529000000000005,eV/atom,
K$_{2}$Pd(CN)$_{4}$,3.8847,eV/atom,
Sr$_{9}$Cd$_{4}$Bi$_{9}$,0.0,eV/atom,
Ba$_{2}$NiWO$_{6}$,3.3409,eV/atom,
Li$_{2}$BiAu,0.0,eV/atom,
ScNi$_{2}$,0.0,eV/atom,
Li(MoSe)$_{3}$,0.8114999999999997,eV/atom,
Li$_{2}$MnP$_{2}$O$_{7}$,4.1219,eV/atom,
Yb$_{5}$(AlSb$_{3}$)$_{2}$,0.06099999999999994,eV/atom,
InRhO$_{3}$,0.2755000000000001,eV/atom,
CrB$_{4}$,0.13060000000000027,eV/atom,
KPH$_{2}$SO$_{3}$,4.5181,eV/atom,
DySbMo$_{2}$O$_{9}$,3.1967999999999996,eV/atom,
Hg$_{2}$PO$_{3}$F,1.4468,eV/atom,
Li$_{3}$Hg,0.0,eV/atom,
SrFe$_{3}$P$_{3}$O$_{13}$,2.0126,eV/atom,
CsCa$_{2}$Nb$_{3}$O$_{10}$,2.274,eV/atom,
Ba(AlGe)$_{2}$,0.0,eV/atom,
Ce(FeAs$_{3}$)$_{4}$,0.26560000000000006,eV/atom,
MgNiH$_{2}$,0.0,eV/atom,
KPH$_{3}$O$_{4}$F,5.7538,eV/atom,
Pr$_{2}$NiO$_{4}$,0.5583,eV/atom,
RbGa$_{7}$,0.0,eV/atom,
P$_{2}$Pb$_{3}$O$_{8}$,3.5298000000000003,eV/atom,
ZnTe,1.0290000000000004,eV/atom,
SrTi$_{4}$(PO$_{4}$)$_{6}$,2.7819,eV/atom,
GeI$_{2}$,1.9586,eV/atom,
NaCaAlF$_{6}$,6.905600000000001,eV/atom,
H$_{2}$SeO$_{4}$,3.3830999999999998,eV/atom,
CsAsF$_{4}$,4.6082,eV/atom,
V$_{2}$Se$_{3}$O$_{11}$,2.1647,eV/atom,
K$_{3}$VH$_{2}$(CO$_{5}$)$_{2}$,2.2312,eV/atom,
La$_{3}$AlC,0.0,eV/atom,
EuH$_{32}$C$_{8}$N$_{4}$Cl$_{7}$,0.0,eV/atom,
Ce$_{7}$C$_{3}$I$_{10}$,0.0,eV/atom,
Na$_{5}$NiO$_{4}$,1.8963,eV/atom,
V$_{2}$Cu$_{3}$O$_{8}$,0.32920000000000016,eV/atom,
GdNiO$_{3}$,0.0,eV/atom,
CsTbF$_{5}$,0.0,eV/atom,
Sm$_{2}$Te$_{4}$O$_{11}$,3.2853999999999997,eV/atom,
VH$_{14}$SO$_{11}$,2.1036,eV/atom,
Ba$_{5}$Co$_{5}$ClO$_{13}$,0.02560000000000029,eV/atom,
Nb$_{3}$Zn$_{3}$N,0.0,eV/atom,
BiTeIO$_{3}$,0.0,eV/atom,
Rb$_{8}$BiO$_{3}$,0.0,eV/atom,
Mn$_{3}$As$_{2}$,0.0,eV/atom,
HfGa$_{4}$Co,0.0,eV/atom,
Ho$_{5}$(Ge$_{5}$Ir$_{2}$)$_{2}$,0.0,eV/atom,
Ge$_{5}$P$_{6}$O$_{25}$,3.5718,eV/atom,
Tm(MnAl$_{2}$)$_{4}$,0.0,eV/atom,
Tl$_{2}$CN$_{2}$,1.8920000000000003,eV/atom,
Tm$_{2}$Fe$_{14}$B,0.0,eV/atom,
Na$_{2}$Al$_{2}$Sb$_{3}$,0.7215999999999996,eV/atom,
VCoTe,0.0,eV/atom,
Cd(GaTe$_{2}$)$_{2}$,1.0357000000000003,eV/atom,
Sr$_{2}$Nb$_{2}$O$_{7}$,2.7520999999999995,eV/atom,
Mg$_{2}$Si,0.21690000000000031,eV/atom,
KV$_{3}$O$_{8}$,2.0824,eV/atom,
Er$_{2}$H$_{16}$S$_{3}$O$_{20}$,5.412100000000001,eV/atom,
Na$_{2}$Eu$_{2}$Ti$_{3}$O$_{10}$,0,eV/atom,
Er$_{2}$MoO$_{6}$,2.1979,eV/atom,
KS$_{2}$O$_{3}$,3.7767,eV/atom,
SrMnV$_{2}$(AgO$_{4}$)$_{2}$,1.8942,eV/atom,
P$_{4}$Ru,1.2576999999999998,eV/atom,
CsCuBr$_{3}$,0.37320000000000003,eV/atom,
RbCoCl$_{3}$O$_{2}$,0.11139999999999994,eV/atom,
BaAs$_{2}$Pd,0.0,eV/atom,
SrZnP$_{2}$(HO$_{4}$)$_{2}$,0.3123,eV/atom,
Pr$_{3}$TlC,0.0,eV/atom,
Sr$_{2}$TcO$_{4}$,0.0,eV/atom,
Ca$_{4}$Bi$_{2}$O,0.8137000000000003,eV/atom,
VC,0.0,eV/atom,
K$_{3}$NaH$_{4}$,2.2261,eV/atom,
RbGa$_{3}$S$_{5}$,2.5212,eV/atom,
CrAgS$_{2}$,0.0,eV/atom,
BaMnF$_{5}$,1.7942,eV/atom,
K$_{2}$CdH$_{4}$(SeO$_{5}$)$_{2}$,2.9829,eV/atom,
Nd$_{2}$SbO$_{2}$,0.0,eV/atom,
Ho(FeSn)$_{6}$,0.0,eV/atom,
ScUS$_{3}$,0.0,eV/atom,
MnTlH$_{2}$OF$_{4}$,1.6629,eV/atom,
UNi$_{5}$,0.0,eV/atom,
CaC$_{2}$,1.8908999999999998,eV/atom,
HgPd$_{5}$Se,0.0,eV/atom,
Os$_{2}$N$_{4}$Cl$_{10}$O,0.26770000000000005,eV/atom,
MnSnIr,0.0,eV/atom,
TlCu$_{3}$S$_{2}$,0.4070999999999998,eV/atom,
TlPd$_{3}$O$_{4}$,1.0564999999999998,eV/atom,
ZrBr$_{2}$,0.0,eV/atom,
Sr$_{2}$CaUO$_{6}$,2.2051000000000003,eV/atom,
SbH$_{16}$C$_{4}$N$_{2}$Cl$_{5}$,3.2333000000000003,eV/atom,
SrCa$_{3}$O$_{4}$,3.6947,eV/atom,
In$_{2}$(MoO$_{4}$)$_{3}$,3.7072000000000003,eV/atom,
TmAgSn,0.0,eV/atom,
Y$_{6}$Pb$_{8}$OF$_{32}$,4.0785,eV/atom,
Sm$_{3}$Si$_{2}$BO$_{10}$,4.7747,eV/atom,
Rb$_{2}$TeH$_{6}$SeO$_{10}$,3.0242,eV/atom,
H$_{32}$RuC$_{8}$N$_{4}$Cl$_{7}$,0.15259999999999996,eV/atom,
Cu$_{4}$Bi$_{5}$PbS$_{11}$,0.0,eV/atom,
Mn$_{4}$Al$_{11}$,0.0,eV/atom,
Si(H$_{3}$C)$_{4}$,6.4988,eV/atom,C[Si](C)(C)C
Cr$_{11}$Ge$_{19}$,0.0,eV/atom,
Cs(AsRu)$_{2}$,0.0,eV/atom,
ZnN,0.0,eV/atom,
Th$_{3}$Si$_{2}$,0.0,eV/atom,
Ag$_{2}$O$_{3}$,0.33609999999999995,eV/atom,
CaCuBi,0.0,eV/atom,
LuAu,0.0,eV/atom,
NdIr$_{5}$,0.0,eV/atom,
ZnS,2.0280000000000005,eV/atom,
Tb(SiRu)$_{2}$,0.0,eV/atom,
KTeO$_{2}$F,3.7203,eV/atom,
Ti$_{2}$Cu,0.0,eV/atom,
SiRh$_{2}$,0.0,eV/atom,
Fe$_{2}$(Se$_{2}$O$_{5}$)$_{3}$,2.6028,eV/atom,
HgNCl,0.0,eV/atom,
SiO$_{2}$,5.6788,eV/atom,
TiAlFeCo,0.12460000000000004,eV/atom,
TlNi$_{4}$(PO$_{4}$)$_{3}$,2.8053,eV/atom,
BaAl$_{4}$S$_{7}$,3.1571,eV/atom,
Ni$_{5}$Te$_{4}$(BrO$_{6}$)$_{2}$,2.7859999999999996,eV/atom,
KH$_{3}$(SO$_{4}$)$_{2}$,5.591200000000001,eV/atom,
Ti$_{5}$Al$_{2}$C$_{3}$,0.0,eV/atom,
Li$_{4}$CO$_{4}$,5.307,eV/atom,
La$_{3}$Ga,0.0,eV/atom,
Ca$_{2}$MgPd$_{2}$,0.0,eV/atom,
Ca$_{5}$Si$_{2}$SO$_{12}$,4.4382,eV/atom,
ZnH$_{6}$(SeO$_{4}$)$_{2}$,4.2465,eV/atom,
NdMg$_{2}$,0.0,eV/atom,
GdAgGe,0,eV/atom,
YCo$_{2}$,0.0,eV/atom,
Xe,6.1937999999999995,eV/atom,[Xe]
PaN,0.0,eV/atom,
KH(CN$_{2}$)$_{3}$,0.0,eV/atom,
MoSBr,0.7938000000000001,eV/atom,
HfFeGe,0.0,eV/atom,
CsCd(NO$_{2}$)$_{3}$,0.0,eV/atom,
Ba$_{3}$CuRu$_{2}$O$_{9}$,0.0,eV/atom,
NbNiTe$_{2}$,0.0,eV/atom,
ReCl$_{3}$O$_{2}$,1.8464,eV/atom,
Ho$_{2}$HgO$_{4}$,2.0919,eV/atom,
KMn(SeO$_{4}$)$_{2}$,1.2,eV/atom,
V$_{7}$O$_{3}$,0.14430000000000032,eV/atom,
Sr$_{2}$ScSbO$_{6}$,3.5086000000000004,eV/atom,
La$_{3}$GaS$_{5}$O,1.1964999999999995,eV/atom,
ReC$_{2}$,0.0,eV/atom,
K$_{2}$PAuS$_{4}$,1.559,eV/atom,
LaCrO$_{4}$,1.0296000000000003,eV/atom,
Cr$_{3}$Pb$_{5}$F$_{19}$,2.9497999999999998,eV/atom,
AgAsSe,0.24490000000000034,eV/atom,
BaLiBO$_{3}$,4.3861,eV/atom,
PW$_{3}$,0.0,eV/atom,
Li$_{2}$P$_{2}$H$_{2}$O$_{7}$,5.2791,eV/atom,
Li$_{4}$TiO$_{4}$,4.5573,eV/atom,
K$_{2}$SeO$_{4}$,3.5911999999999997,eV/atom,
CrO$_{3}$,2.2551,eV/atom,
K$_{2}$Mg$_{2}$(SO$_{4}$)$_{3}$,5.544899999999999,eV/atom,
Eu(Al$_{10}$V)$_{2}$,0.0,eV/atom,
CaPH$_{5}$O$_{6}$,5.3416,eV/atom,
Tb(MnSi)$_{2}$,0.0,eV/atom,
Sr$_{2}$Ni(PO$_{4}$)$_{2}$,3.9939000000000004,eV/atom,
Ba$_{2}$YSbO$_{6}$,0.0,eV/atom,
Ni$_{8}$Bi$_{8}$SI,0.0,eV/atom,
CsAg$_{3}$Se$_{2}$,0.19390000000000018,eV/atom,
ZrCrSi$_{2}$,0.0,eV/atom,
Ga$_{2}$(SO$_{4}$)$_{3}$,4.33,eV/atom,
Gd$_{3}$CCl$_{3}$,0.0,eV/atom,
ThIr,0.0,eV/atom,
YbGa$_{2}$Ni,0.0,eV/atom,
LiFeSiO$_{4}$,2.6304,eV/atom,
DyInCu,0.0,eV/atom,
Ce$_{3}$CuGeS$_{7}$,0.0,eV/atom,
GdCr$_{3}$(BO$_{3}$)$_{4}$,2.3912999999999998,eV/atom,
LaSi$_{3}$Ru,0.0,eV/atom,
Ca$_{4}$Mg$_{3}$H$_{14}$,3.1113,eV/atom,
CsTe,1.1129000000000002,eV/atom,
HfAl,0.0,eV/atom,
Sn(HgSe$_{2}$)$_{2}$,0.2722,eV/atom,
SiNiSb,0.0,eV/atom,
BaClO$_{3}$,0.09499999999999997,eV/atom,[Cl-].[Ba+2].[OH-].O.O
Ba$_{5}$Nd$_{8}$Mn$_{4}$O$_{21}$,1.8889,eV/atom,
Nd(BO$_{2}$)$_{3}$,5.4208,eV/atom,
Na$_{3}$HoCl$_{6}$,5.2294,eV/atom,
Tb$_{12}$(OsC$_{3}$)$_{5}$,0.0,eV/atom,
U$_{4}$Al$_{18}$Ni$_{5}$,0.0,eV/atom,
Ba$_{4}$Sm$_{2}$Cd$_{3}$S$_{10}$,1.8925999999999998,eV/atom,
Na$_{2}$Au,0.0,eV/atom,
Li$_{2}$ZnSi,0.0,eV/atom,
Sm$_{2}$Ge$_{2}$Ru,0.0,eV/atom,
Sc$_{2}$Fe$_{3}$Si,0.0,eV/atom,
VAs,0.0,eV/atom,
ZrBe$_{2}$,0.0,eV/atom,
YF$_{3}$,7.533799999999999,eV/atom,
Tl$_{3}$Ir,0.0,eV/atom,
SiO$_{2}$,4.0078000000000005,eV/atom,
Zr$_{5}$Al$_{3}$C,0.0,eV/atom,
KHg(PO$_{3}$)$_{3}$,3.0374999999999996,eV/atom,
TmNbO$_{4}$,3.4278000000000004,eV/atom,
CdCu$_{2}$SiS$_{4}$,0.9802999999999997,eV/atom,
Ta$_{2}$Fe,0.0,eV/atom,
HoS,0.0,eV/atom,
Yb$_{4}$Mg$_{4}$Fe$_{3}$H$_{22}$,1.4719,eV/atom,
Nd$_{3}$(CuGe)$_{4}$,0.0,eV/atom,
CeZn,0.0,eV/atom,
Sr$_{2}$H$_{6}$Os,2.5747,eV/atom,
YbGa$_{4}$,0.0,eV/atom,
Sr$_{2}$SmGaCu$_{2}$O$_{7}$,0.0,eV/atom,
Sr$_{2}$MgWO$_{6}$,3.4276000000000004,eV/atom,
InCo$_{3}$N,0.0,eV/atom,
LiLaTiO$_{4}$,2.2636999999999996,eV/atom,
LaVO$_{4}$,3.1222000000000003,eV/atom,
Na$_{4}$P$_{2}$O$_{7}$,4.416,eV/atom,
Ba(MnAs)$_{2}$,0.0,eV/atom,
TbNi$_{2}$,0.0,eV/atom,
Nb$_{2}$SnO$_{6}$,1.7399,eV/atom,
RbPb$_{2}$Br$_{5}$,3.0418000000000003,eV/atom,
Pr$_{2}$TeO$_{2}$,1.6555999999999997,eV/atom,
Ba$_{2}$ScCl$_{7}$,3.6349,eV/atom,
YClO,5.0908,eV/atom,
SnIr,0.0,eV/atom,
GdSiRu,0.0,eV/atom,
Mn$_{2}$Te$_{3}$O$_{8}$,2.4645,eV/atom,
Na$_{2}$Mg$_{5}$(PO$_{4}$)$_{4}$,4.9369,eV/atom,
TlCuSe$_{2}$,0.0,eV/atom,
CeGe$_{2}$,0.0,eV/atom,
PdSe$_{2}$O$_{5}$,0.9946999999999999,eV/atom,
Ba$_{2}$CoMoO$_{6}$,0.0,eV/atom,
PrP$_{2}$,0.0,eV/atom,
NdAsPd,0.0,eV/atom,
Yb$_{5}$Ge$_{4}$,0.0,eV/atom,
H$_{2}$RuC$_{3}$(ClO$_{2}$)$_{2}$,3.162,eV/atom,
Eu(BS$_{2}$)$_{2}$,0.9983000000000004,eV/atom,
CeB$_{2}$ClO$_{4}$,0.2019000000000002,eV/atom,
PuAlCo,0.0,eV/atom,
BaMo$_{2}$(PO$_{6}$)$_{2}$,2.9956,eV/atom,
SrHgPb,0.0,eV/atom,
Na$_{3}$VB$_{6}$O$_{13}$,3.4863,eV/atom,
NbCoSi,0.0,eV/atom,
Dy$_{3}$Ga$_{8}$Ag$_{3}$,0.0,eV/atom,
LiYO$_{2}$,4.108199999999999,eV/atom,
K$_{2}$HS$_{2}$NO$_{6}$,5.0641,eV/atom,
Ce$_{2}$Ni$_{12}$P$_{7}$,0.0,eV/atom,
Ba(CdAs)$_{2}$,0.1591999999999998,eV/atom,
KP(HO$_{2}$)$_{2}$,4.919,eV/atom,
Cu$_{8}$GeS$_{6}$,0.5983,eV/atom,
CeMo$_{5}$O$_{8}$,0.1473999999999993,eV/atom,
Fe$_{2}$Ni,0.0,eV/atom,
EuBRh$_{3}$,0.0,eV/atom,
AlPO$_{4}$,5.6296,eV/atom,
U$_{3}$Co$_{4}$Ge$_{7}$,0.0,eV/atom,
Ce$_{4}$Co$_{2}$Sn$_{5}$,0.0,eV/atom,
Sr$_{2}$YReO$_{6}$,0.0,eV/atom,
Na$_{3}$Ir(NO$_{2}$)$_{6}$,2.6252999999999997,eV/atom,
KNdTe$_{4}$,0.1499000000000006,eV/atom,
LiTiMnF$_{6}$,0.09629999999999983,eV/atom,
Mn$_{3}$(CuBi)$_{4}$,0.0,eV/atom,
TiO$_{2}$,2.5266,eV/atom,
Li$_{2}$MoO$_{4}$,4.1184,eV/atom,
Cd$_{7}$(P$_{2}$Cl$_{3}$)$_{2}$,1.7985,eV/atom,
Li$_{3}$VF$_{6}$,2.4336,eV/atom,
KNa$_{2}$AuO$_{2}$,2.0423,eV/atom,
Fe$_{3}$(OF$_{4}$)$_{2}$,0.0262,eV/atom,
YbS$_{2}$,1.2066999999999997,eV/atom,
KTiF$_{4}$,0.0,eV/atom,
CN,4.8639,eV/atom,N#CC#N
Na$_{2}$AsAu,0.4184000000000001,eV/atom,
CsTmCoS$_{3}$,0.0,eV/atom,
Eu$_{5}$Si$_{3}$O$_{12}$F,0.0,eV/atom,
Er$_{2}$Ga$_{8}$Co,0.0,eV/atom,
RbCrCl$_{3}$,0.13260000000000005,eV/atom,
Hg$_{2}$N,0.0,eV/atom,
Gd$_{2}$Fe$_{17}$,0.0,eV/atom,
Ni$_{3}$Mo$_{3}$N,0.0,eV/atom,
Na$_{2}$CaMg(PO$_{4}$)$_{2}$,5.0991,eV/atom,
S$_{5}$N$_{6}$,2.2908,eV/atom,
GePtSe,0.6596000000000002,eV/atom,
TlMo$_{2}$Cl$_{7}$O$_{2}$,2.4729,eV/atom,
KBiS(ClO$_{2}$)$_{2}$,4.179,eV/atom,
TaGa$_{3}$,0.0,eV/atom,
P$_{2}$H$_{10}$N$_{2}$O$_{7}$,4.6655999999999995,eV/atom,O=P([O-])([O-])OP(=O)(O)O.[NH4+].[NH4+]
K$_{3}$PO$_{4}$,4.0019,eV/atom,
SmGeRu,0.0,eV/atom,
Sr$_{7}$Nb$_{6}$O$_{21}$,0.0,eV/atom,
TlPt$_{2}$S$_{3}$,1.0242000000000004,eV/atom,
BaMoSeO$_{6}$,3.0671999999999997,eV/atom,
La(BIr)$_{4}$,0.0,eV/atom,
Sr$_{3}$V$_{2}$O$_{7}$,0.5916000000000006,eV/atom,
Na$_{3}$MoN$_{3}$,1.4075,eV/atom,
V$_{2}$NiO$_{6}$,2.1115000000000004,eV/atom,
K$_{3}$NaFeCl$_{6}$,0.7837000000000001,eV/atom,
Tb$_{3}$(CoGe$_{2}$)$_{2}$,0.0,eV/atom,
ThOs$_{2}$,0.0,eV/atom,
Na$_{3}$MoH$_{6}$(CO$_{2}$)$_{6}$,3.8578,eV/atom,
CsBe$_{2}$F$_{5}$,7.180899999999999,eV/atom,
UCu$_{5}$,0.0,eV/atom,
K$_{2}$NaMnO$_{4}$,1.6992,eV/atom,
La$_{6}$UO$_{12}$,1.9808999999999992,eV/atom,
CdI$_{2}$,2.3402000000000003,eV/atom,
H$_{5}$N$_{2}$Cl,0.0,eV/atom,[Cl-].N[NH3+]
K$_{3}$Sm(BO$_{3}$)$_{2}$,3.4183,eV/atom,
KAgO,0.0,eV/atom,
LuCrO$_{4}$,0.23330000000000028,eV/atom,
Ca$_{2}$BiAsO$_{6}$,3.2393,eV/atom,
Mg$_{2}$CoB$_{2}$Ir$_{5}$,0.0,eV/atom,
Nd$_{2}$Si$_{2}$O$_{7}$,4.6637,eV/atom,
Tm$_{2}$S$_{3}$,0.9358000000000004,eV/atom,
Nd(NiSn)$_{2}$,0.0,eV/atom,
CsAuC$_{2}$,2.0644,eV/atom,
Rb(OsO$_{3}$)$_{2}$,0.0,eV/atom,
Sr(CdAs)$_{2}$,0.13670000000000027,eV/atom,
Sm$_{2}$CdPd$_{2}$,0.0,eV/atom,
ScAg$_{4}$,0.0,eV/atom,
SiO$_{2}$,4.5413,eV/atom,
NaZnAs,0.3635999999999999,eV/atom,