formula,Property band_gap,Property band_gap units,Property SMILES
CsEr$_{2}$Cu$_{3}$Se$_{5}$,1.5196999999999998,eV/atom,
CoTeMo,0.0,eV/atom,
La$_{2}$Si$_{2}$O$_{7}$,4.5641,eV/atom,
BP,1.2435,eV/atom,
NaHgCl$_{3}$,2.5331,eV/atom,
CsICl$_{2}$,2.2034000000000002,eV/atom,
TaTlS$_{3}$,0.5987999999999998,eV/atom,
ZrCoSb,0.0,eV/atom,
B$_{13}$P$_{2}$,0.0,eV/atom,
Tm$_{2}$ReC$_{2}$,0.0,eV/atom,
YbGa$_{2}$Pd,0.0,eV/atom,
UBr$_{4}$,0.0,eV/atom,
C,0.014800000000000035,eV/atom,[C]
PrIn$_{3}$,0.0,eV/atom,
Hf$_{8}$MnTe$_{6}$,0.0,eV/atom,
RbYbO$_{2}$,0.0,eV/atom,
UH$_{14}$(NO$_{2}$)$_{4}$,2.2385,eV/atom,
Li$_{2}$ThN$_{2}$,2.2243999999999993,eV/atom,
TiNi$_{2}$Sb,0.0,eV/atom,
Ti$_{3}$InN,0.0,eV/atom,
K$_{3}$NdV$_{2}$O$_{8}$,3.6332,eV/atom,
CrBr$_{3}$,1.267,eV/atom,
NbBO$_{4}$,2.4711,eV/atom,
KCu(BiS$_{2}$)$_{2}$,0.6732,eV/atom,
YTiSi,0.0,eV/atom,
HfReSi,0.0,eV/atom,
TiCdO$_{3}$,2.9224999999999994,eV/atom,
La$_{3}$(GeRh)$_{4}$,0.0045000000000001705,eV/atom,
PdO,0.0,eV/atom,
KPr(SO$_{4}$)$_{2}$,5.5718000000000005,eV/atom,
KSb$_{5}$S$_{8}$,1.5628999999999995,eV/atom,
Li$_{9}$Cr$_{3}$P$_{8}$O$_{29}$,3.0837000000000003,eV/atom,
KSnAsO$_{5}$,2.1357,eV/atom,
Na$_{3}$AgS$_{2}$,2.1755,eV/atom,
Dy$_{3}$S$_{4}$,0.0,eV/atom,
Sm(MnGe)$_{6}$,0.0,eV/atom,
NdSbPt,0.0,eV/atom,
TiAsRh,0.0,eV/atom,
Rb$_{5}$HfFe(MoO$_{4}$)$_{6}$,3.2284,eV/atom,
K$_{6}$Tl$_{2}$Sb$_{3}$,0.01869999999999994,eV/atom,
CeSbPt$_{5}$,0.0,eV/atom,
LiAl$_{3}$,0.0,eV/atom,
Ni$_{11}$As$_{8}$,0.0,eV/atom,
K$_{2}$ZrF$_{6}$,5.694,eV/atom,
CaGa$_{3}$Ni$_{2}$,0.0,eV/atom,
LaZnIn,0.0,eV/atom,
Ho$_{2}$(GePt$_{3}$)$_{3}$,0.0,eV/atom,
Ba$_{7}$Fe$_{6}$CuF$_{34}$,0.6143000000000001,eV/atom,
Ho$_{4}$CdCo,0.0,eV/atom,
HfGeRh,0.0,eV/atom,
LiPd,0.0,eV/atom,
Li$_{4}$Zn(PO$_{4}$)$_{2}$,4.676,eV/atom,
YbNi$_{2}$,0.0,eV/atom,
Zn(InS$_{2}$)$_{2}$,0.13070000000000048,eV/atom,
KHgC$_{3}$(SN)$_{3}$,1.9119000000000002,eV/atom,
Rb$_{2}$Ti(GeO$_{3}$)$_{3}$,2.7546,eV/atom,
AlPO$_{4}$,5.612,eV/atom,
NaAlBP$_{2}$H$_{3}$O$_{10}$,5.7883000000000004,eV/atom,
MgSO$_{4}$,5.4889,eV/atom,
TmInPd,0.0,eV/atom,
Na$_{2}$Mo$_{2}$O$_{7}$,3.2119999999999997,eV/atom,
PrPO$_{4}$,5.6478,eV/atom,
KBH$_{4}$,6.0978,eV/atom,
Ba$_{2}$SnS$_{4}$,1.9550999999999994,eV/atom,
Na$_{5}$La(WO$_{4}$)$_{4}$,4.7881,eV/atom,
TiBe$_{2}$,0.0,eV/atom,
K$_{3}$Ga$_{2}$(PO$_{4}$)$_{3}$,3.9207,eV/atom,
Na$_{2}$ScCuF$_{7}$,0.0,eV/atom,
TiCoSn,0.0,eV/atom,
CsSb(PO$_{4}$)$_{2}$,2.9469,eV/atom,
B$_{5}$H$_{2}$Pb$_{2}$O$_{11}$,0.19349999999999978,eV/atom,
ThCoSn,0.0,eV/atom,
RbRuF$_{6}$,1.264,eV/atom,
ThIN,2.699,eV/atom,
CsBi$_{2}$,0.0,eV/atom,
Pu(SiAu)$_{2}$,0.0,eV/atom,
Yb(GeRh)$_{2}$,0.0,eV/atom,
SmIn$_{3}$,0.0,eV/atom,
Sn$_{2}$P$_{2}$O$_{7}$,3.5193000000000003,eV/atom,
CsCu$_{2}$I$_{3}$,1.9006000000000003,eV/atom,
K$_{2}$Zn(SeO$_{5}$)$_{2}$,0.0,eV/atom,
Ce$_{7}$O$_{12}$,0.0,eV/atom,
Ca$_{5}$(GePd)$_{6}$,0.0,eV/atom,
Tl$_{3}$PbBr$_{5}$,3.1285999999999996,eV/atom,
Zr$_{9}$CoMo$_{4}$,0.0,eV/atom,
KRb$_{2}$RhF$_{6}$,2.1662,eV/atom,
ErTl,0.0,eV/atom,
LiYSiO$_{4}$,5.1083,eV/atom,
La$_{3}$(CrN$_{3}$)$_{2}$,0.0,eV/atom,
Nd$_{2}$Co$_{2}$SiC,0.0,eV/atom,
Ho$_{5}$NiPb$_{3}$,0.0,eV/atom,
Na$_{4}$UO$_{5}$,2.1446,eV/atom,
UNiGe,0.0,eV/atom,
FeSbSe,0.6233000000000004,eV/atom,
BaMnO$_{3}$,0.6737000000000002,eV/atom,
LiV(SiO$_{3}$)$_{2}$,2.0674,eV/atom,
CoNiAs,0.0,eV/atom,
Cs$_{2}$CO$_{3}$,3.2179,eV/atom,
KAu(IO$_{3}$)$_{4}$,2.1222,eV/atom,
GaSb,0.05870000000000042,eV/atom,
Cr$_{3}$B$_{7}$BrO$_{13}$,2.4249,eV/atom,
Zr$_{2}$Co,0.0,eV/atom,
MnSO$_{5}$,0.0,eV/atom,
SnAsF$_{7}$,3.3358000000000003,eV/atom,
Sc$_{3}$BPb,0.0,eV/atom,
K$_{2}$Ag$_{4}$Se$_{3}$,0.0017000000000000348,eV/atom,
Y$_{2}$SiO$_{5}$,4.7718,eV/atom,
Lu$_{4}$Ge$_{6}$Ru$_{7}$,0.07859999999999978,eV/atom,
ZnSe$_{2}$,0.8048000000000002,eV/atom,
NpAsSe,0.0,eV/atom,
Y(PO$_{3}$)$_{3}$,5.6193,eV/atom,
InSe,0.6587000000000001,eV/atom,
NaGeAu$_{3}$,0.051200000000000134,eV/atom,
Al$_{4}$Mo,0.0,eV/atom,
LiB(CO$_{2}$)$_{4}$,3.3042000000000002,eV/atom,
NaFeAs,0.0,eV/atom,
La$_{10}$Se$_{14}$O,1.5518999999999998,eV/atom,
K$_{2}$CS$_{2}$(O$_{3}$F)$_{2}$,5.6438999999999995,eV/atom,
CsVCl$_{3}$,0.4834999999999998,eV/atom,
HoCoGe,0.0,eV/atom,
TaCoGe,0.0,eV/atom,
Nd$_{7}$Pd$_{3}$,0.0,eV/atom,
SrHg$_{3}$,0.0,eV/atom,
C,4.5686,eV/atom,[C]
Ce(AlAu)$_{2}$,0.0,eV/atom,
PrScGe,0.0,eV/atom,
Y$_{2}$C$_{3}$,0.0,eV/atom,
Mn$_{4}$As$_{3}$,0.0,eV/atom,
Bi(W$_{2}$Cl$_{5}$)$_{3}$,2.0045,eV/atom,
Ho$_{2}$SiSeO$_{4}$,2.5657999999999994,eV/atom,
Yb$_{4}$Sb$_{3}$,0.0,eV/atom,
PuCu$_{2}$,0.0,eV/atom,
Na$_{2}$Sm$_{2}$Ti$_{3}$O$_{10}$,2.0282999999999998,eV/atom,
La$_{3}$Pd$_{4}$,0.0,eV/atom,
Nd$_{4}$MgRu,0.0,eV/atom,
Cs$_{2}$PtF$_{6}$,2.814,eV/atom,
YPbAu,0.0,eV/atom,
LuSF,2.6140999999999996,eV/atom,
KBaPO$_{4}$,4.9459,eV/atom,
Rb$_{2}$PdC$_{2}$,1.5802,eV/atom,
K$_{3}$Mn,0.0,eV/atom,
Zr$_{3}$V$_{3}$C,0.0,eV/atom,
Pd$_{3}$(PbS)$_{2}$,0.19099999999999984,eV/atom,
MnCoO$_{3}$,1.0859000000000005,eV/atom,
SiO$_{2}$,4.5368,eV/atom,
ScSi$_{3}$Ni,0.0,eV/atom,
Cr$_{2}$F$_{5}$,1.4726,eV/atom,
Ce$_{20}$Mg$_{19}$Zn$_{81}$,0.0,eV/atom,
Nd(As$_{3}$Os)$_{4}$,0.0,eV/atom,
VH$_{20}$C$_{2}$S$_{2}$N$_{6}$O$_{13}$,3.0467,eV/atom,
BaH$_{2}$CSNClO,4.8714,eV/atom,
KLi$_{6}$TaO$_{6}$,4.3852,eV/atom,
TePb,0.0,eV/atom,
EuTiClO$_{3}$,0.0,eV/atom,
HoBRh$_{3}$,0.0,eV/atom,
UP$_{3}$H$_{10}$ClO$_{8}$,0.37829999999999986,eV/atom,
Cs$_{2}$CaF$_{4}$,6.1005,eV/atom,
Y(GePt)$_{2}$,0.0,eV/atom,
Tl$_{2}$(IO$_{3}$)$_{3}$,1.9006999999999996,eV/atom,
Er$_{3}$(Si$_{3}$Ru)$_{4}$,0.0,eV/atom,
LaAl$_{4}$Co,0.0,eV/atom,
CsUTiTe$_{5}$,0.0,eV/atom,
CdHgS$_{4}$,0.0,eV/atom,
RbEuS$_{2}$,0.0,eV/atom,
Er$_{7}$Ru$_{2}$C$_{11}$,0.0,eV/atom,
AlTlCl$_{4}$,4.732200000000001,eV/atom,
Cu$_{4}$P$_{2}$O$_{9}$,0.0,eV/atom,
Lu$_{2}$Te$_{4}$O$_{11}$,3.2085,eV/atom,
In$_{2}$Rh$_{3}$S$_{2}$,0.0,eV/atom,
Mn(NbS$_{2}$)$_{3}$,0.0,eV/atom,
La$_{2}$SeO$_{2}$,2.4067,eV/atom,
KFeS$_{2}$,0.0,eV/atom,
Sr(GePd)$_{2}$,0.0,eV/atom,
ZrAlPt$_{2}$,0.0,eV/atom,
SrGe$_{3}$Pt,0.0,eV/atom,
InCu$_{6}$ClO$_{8}$,0.0,eV/atom,
Na$_{2}$CrCuF$_{7}$,0.00839999999999999,eV/atom,
Cs$_{2}$MgH$_{4}$,2.9953000000000003,eV/atom,
TmZnGa,0.0,eV/atom,
Ti$_{4}$As$_{3}$,0.0,eV/atom,
K$_{2}$AgAs,1.0712000000000002,eV/atom,
Cs$_{2}$KCuF$_{6}$,0.8474999999999999,eV/atom,
NaCaB$_{5}$H$_{16}$O$_{17}$,2.9061,eV/atom,
HS$_{3}$N,2.7266,eV/atom,
Ti$_{5}$(PO$_{5}$)$_{4}$,2.891,eV/atom,
Sr$_{2}$LiReO$_{6}$,1.8392000000000002,eV/atom,
Sr(AlCl$_{4}$)$_{2}$,5.5134,eV/atom,
Hg$_{2}$ClO,2.0369,eV/atom,
Hg$_{2}$MoO$_{4}$,1.8929,eV/atom,
Na$_{2}$InCuF$_{7}$,0.0,eV/atom,
BeF$_{2}$,7.9632,eV/atom,
Cs$_{2}$SnAs$_{2}$,0.7657999999999996,eV/atom,
Nd$_{2}$Co$_{14}$B,0.0,eV/atom,
Na$_{2}$Cu$_{2}$Si$_{4}$H$_{4}$O$_{13}$,0.18369999999999997,eV/atom,
Pt(S$_{3}$N)$_{2}$,0.6264,eV/atom,
YbBrO,0.0,eV/atom,
CeCu$_{6}$,0.0,eV/atom,
Bi$_{5}$IO$_{7}$,2.7325000000000004,eV/atom,
SiC,2.008000000000001,eV/atom,
Yb$_{5}$Sb$_{3}$,0.0,eV/atom,
CrH$_{18}$(O$_{3}$F)$_{3}$,4.0705,eV/atom,
Na$_{2}$TiSiO$_{5}$,2.9882,eV/atom,
MnO$_{2}$,1.5739,eV/atom,
Na$_{2}$LuMoPO$_{8}$,4.1749,eV/atom,
CaIn$_{2}$Cu,0.0,eV/atom,
TlHg$_{3}$,0.0,eV/atom,
TiAl,0.0,eV/atom,
LiAlSi$_{2}$H$_{2}$O$_{7}$,3.9817,eV/atom,
CsFe$_{2}$P$_{5}$O$_{16}$,2.608,eV/atom,
SiSn,0.4112999999999998,eV/atom,
Ta$_{2}$NiS$_{5}$,0.0,eV/atom,
Ti$_{2}$H$_{4}$Pd,0.0,eV/atom,
RbCr$_{4}$O$_{8}$,0.3376000000000001,eV/atom,
DyZnPO,1.2613999999999992,eV/atom,
Nd$_{2}$AlCo$_{2}$,0.0,eV/atom,
K$_{3}$ZnNCl$_{4}$O$_{3}$,3.3079,eV/atom,
Mn$_{2}$P$_{2}$O$_{7}$,3.2650000000000006,eV/atom,[Mn+4].O=P([O-])([O-])OP(=O)([O-])[O-]
Cr$_{2}$CdO$_{4}$,2.4764999999999997,eV/atom,
Tm$_{2}$Ti$_{2}$O$_{7}$,2.6252999999999997,eV/atom,
Ho$_{3}$Ge$_{3}$Ru$_{2}$,0.0,eV/atom,
SnS$_{2}$(O$_{3}$F)$_{2}$,4.2665,eV/atom,[Sn+2].O=S(=O)([O-])F.O=S(=O)([O-])F
MgSiP$_{2}$,0.0,eV/atom,
P$_{4}$Se$_{5}$,1.8240999999999998,eV/atom,
Sr$_{2}$GdMoO$_{6}$,1.3576000000000001,eV/atom,
Pr$_{2}$Co$_{3}$Ge$_{5}$,0.0,eV/atom,
ZrBr,0.0,eV/atom,
Sr$_{4}$Ti$_{5}$(Si$_{2}$O$_{11}$)$_{2}$,1.9373,eV/atom,
NaSr$_{3}$NbO$_{6}$,3.2962000000000002,eV/atom,
Cs$_{3}$Sb$_{2}$I$_{9}$,1.8679000000000001,eV/atom,
LiDy(PO$_{3}$)$_{4}$,5.9314,eV/atom,
NaVP$_{2}$O$_{7}$,2.1109999999999998,eV/atom,
As$_{2}$O$_{3}$,3.0394,eV/atom,
Na$_{2}$TeHSO$_{5}$F$_{3}$,3.4407,eV/atom,
Nd$_{3}$SiS$_{6}$Cl,2.5568000000000004,eV/atom,
CsBrF,2.4765,eV/atom,
PrAgSb$_{2}$,0.0,eV/atom,
CaAlPd,0.0,eV/atom,
MnBiO$_{3}$,0.07969999999999988,eV/atom,
LiBC$_{2}$(O$_{2}$F)$_{2}$,3.7236000000000002,eV/atom,
Gd$_{2}$In,0.0,eV/atom,
CaFe(SiO$_{3}$)$_{2}$,3.0854999999999997,eV/atom,
Mn$_{2}$O$_{2}$F$_{9}$,0.6117000000000004,eV/atom,
PNF$_{2}$,5.0738,eV/atom,
ZrO$_{2}$,3.4737000000000005,eV/atom,
UPt,0.0,eV/atom,
NdAsO$_{4}$,3.7503,eV/atom,
CeCr$_{2}$Si$_{2}$C,0.0,eV/atom,
V$_{2}$Ni(PO$_{5}$)$_{2}$,1.5323000000000002,eV/atom,
Zr$_{3}$Ag,0.0,eV/atom,
Tm(FeSi)$_{2}$,0.0,eV/atom,
TbAlGe,0.0,eV/atom,
Gd(BRu)$_{2}$,0.0,eV/atom,
Sm$_{2}$Si$_{2}$O$_{7}$,4.7966,eV/atom,
Nd$_{2}$BiO$_{2}$,0.0,eV/atom,
K$_{2}$CdSn,0.16679999999999984,eV/atom,
LaSn$_{2}$,0.0,eV/atom,
NaLiSe,2.4375,eV/atom,
Ho$_{5}$(Ge$_{5}$Rh$_{2}$)$_{2}$,0.0,eV/atom,
CIN$_{2}$(O$_{2}$F)$_{3}$,3.3350999999999997,eV/atom,
TmS,0.0,eV/atom,
Cs$_{2}$KTbCl$_{6}$,5.0878,eV/atom,
K$_{2}$NiF$_{4}$,4.7252,eV/atom,
Na$_{2}$CO$_{3}$,3.8437,eV/atom,
Ba$_{3}$Zn$_{6}$Si$_{4}$TeO$_{20}$,2.6364000000000005,eV/atom,
CoH$_{17}$C(NO)$_{8}$,0.939,eV/atom,
KAgF$_{3}$,0.0,eV/atom,
DyCu$_{4}$Ag,0.0,eV/atom,
Na$_{6}$Zn$_{3}$As$_{4}$H$_{6}$O$_{19}$,2.9932999999999996,eV/atom,
Na$_{4}$Co$_{3}$P$_{4}$(H$_{3}$O$_{4}$)$_{6}$,3.0663,eV/atom,
RbCu$_{2}$I$_{3}$,2.0172999999999996,eV/atom,
Eu(In$_{2}$Ag)$_{4}$,0.0,eV/atom,
SiGeN$_{2}$O,3.6459,eV/atom,
Lu$_{2}$S$_{3}$,2.5704000000000002,eV/atom,
Cs$_{3}$GaSe$_{3}$,2.0806,eV/atom,[Cs+].[Cs+].[Cs+].[Cs+].[Cs+].[Cs+].O=C([O-])C1=CC(O)=C(O)C(O)=C1[Se][Se][Se][Se][Se][Se]C2=C(O)C(O)=C(O)C=C2C(=O)[O-].O=C([O-])C1=CC(O)=C(O)C(O)=C1[Se][Se][Se][Se][Se][Se]C2=C(O)C(O)=C(O)C=C2C(=O)[O-].O=C([O-])C1=CC(O)=C(O)C(O)=C1[Se][Se][Se][Se][Se][Se]C2=C(O)C(O)=C(O)C=C2C(=O)[O-]
CaB$_{2}$(H$_{2}$O$_{3}$)$_{2}$,5.3586,eV/atom,
RbLiSe,2.3089,eV/atom,
Sm$_{3}$PbC,0.0,eV/atom,
CdI$_{2}$,2.3913,eV/atom,
Sc$_{5}$CCl$_{8}$,0.0,eV/atom,
PrInNi,0.0,eV/atom,
Cs$_{3}$Bi$_{2}$Cl$_{9}$,3.2297,eV/atom,
KVBP$_{2}$HO$_{9}$,2.036,eV/atom,
NpPd$_{3}$,0.0,eV/atom,
Cu$_{2}$HgGeSe$_{4}$,0.0,eV/atom,
FeCo,0.0,eV/atom,
Cs(MnP)$_{2}$,0,eV/atom,
Sr$_{10}$Al$_{6}$O$_{19}$,3.6919000000000004,eV/atom,
Ca$_{3}$Al$_{2}$O$_{6}$,0.0,eV/atom,
NaV$_{6}$O$_{11}$,0.2906000000000004,eV/atom,
Sr$_{4}$As$_{3}$,0.5853000000000002,eV/atom,
Nb$_{4}$AlC$_{3}$,0.0,eV/atom,
PrGeRu,0.0,eV/atom,
TbNiB$_{4}$,0.0,eV/atom,
TmHg$_{3}$,0.0,eV/atom,
CsP$_{4}$N$_{7}$,3.865400000000001,eV/atom,
CeTl$_{5}$Cu$_{2}$(NO$_{2}$)$_{12}$,0.0,eV/atom,
Na$_{3}$SbO$_{3}$,3.0881000000000003,eV/atom,
Cs$_{2}$PbCl$_{6}$,1.4904,eV/atom,
Nb$_{2}$B$_{3}$,0.0,eV/atom,
SrBe$_{3}$O$_{4}$,4.1295,eV/atom,
ErTe$_{3}$,0.0,eV/atom,
Eu$_{5}$As$_{3}$,0.0,eV/atom,
CuSe$_{3}$Br,1.0298999999999998,eV/atom,
Ba$_{2}$UFeO$_{6}$,0.014499999999999957,eV/atom,
ThIn$_{3}$,0.0,eV/atom,
Ca$_{9}$Zn$_{4}$Bi$_{9}$,0.0,eV/atom,
RbNdO$_{2}$,3.4261,eV/atom,
NaZnP,0.9143000000000003,eV/atom,
U$_{2}$(P$_{2}$O$_{7}$)$_{3}$,0.2629999999999999,eV/atom,O=[U+2]=O.O=[U+2]=O.O=P([O-])([O-])[O-].O=P([O-])(O)O.O=P(O)(O)O.O=P(O)(O)O.O=P(O)(O)O.O=P(O)(O)O
La$_{6}$Ti$_{2}$S$_{8}$O$_{5}$,1.3379000000000003,eV/atom,
TlS,0.8102,eV/atom,
Al(SeCl$_{2}$)$_{2}$,1.3809,eV/atom,
CrCoH$_{18}$(CN$_{2}$)$_{6}$,1.8694,eV/atom,
KYP$_{2}$O$_{7}$,5.2001,eV/atom,
Li(Sn$_{3}$Pd)$_{2}$,0.0,eV/atom,
MgVO$_{3}$,0.0,eV/atom,
Se$_{2}$S(NCl)$_{2}$,1.7075999999999998,eV/atom,
HoOF,5.0893999999999995,eV/atom,
Sr$_{3}$Sb$_{4}$S$_{9}$,1.0408000000000008,eV/atom,
VSO$_{5}$,1.9101000000000001,eV/atom,
CaP$_{2}$H$_{6}$O$_{7}$,6.4004,eV/atom,
FeH$_{2}$C$_{4}$N$_{4}$Cl$_{6}$O,0.0,eV/atom,
Cu(IN)$_{4}$,0.0,eV/atom,
LaAl$_{3}$Cu,0.0,eV/atom,
SnPHO$_{4}$,3.3978,eV/atom,
Bi$_{2}$Se$_{3}$,0.5434000000000001,eV/atom,
Hg$_{3}$AsO$_{4}$,0.49249999999999994,eV/atom,
DyMgPd,0.0,eV/atom,
Gd$_{2}$Mo(SeO$_{4}$)$_{3}$,2.7361999999999993,eV/atom,
K$_{49}$Tl$_{108}$,0.049900000000000055,eV/atom,
NdNi$_{4}$B,0,eV/atom,
Si$_{6}$Ni$_{3}$Au,0.0,eV/atom,
Rb$_{3}$Y$_{2}$(BO$_{3}$)$_{3}$,4.3878,eV/atom,
CrInBr$_{3}$,0.49129999999999985,eV/atom,
TmGa$_{3}$Ru,0.0,eV/atom,
KCuCl$_{3}$,0.24149999999999994,eV/atom,
BaYbCdSb$_{2}$,0.7040000000000002,eV/atom,
CeNiP,0.0,eV/atom,
Ta$_{2}$Pt$_{3}$S$_{8}$,0.6797000000000004,eV/atom,
Na$_{5}$InS$_{4}$,2.0197000000000003,eV/atom,
Rb$_{3}$GaP$_{2}$,0.8513999999999999,eV/atom,
NaAl$_{3}$P$_{2}$(HO$_{3}$)$_{4}$,5.4975000000000005,eV/atom,
Sm$_{3}$Pd$_{4}$,0.0,eV/atom,
CrInNi$_{2}$,0.0,eV/atom,
SiH$_{8}$C$_{2}$NClO,5.0017000000000005,eV/atom,
LiTiAsO$_{5}$,3.1654000000000004,eV/atom,
Sr$_{11}$(Ge$_{2}$N$_{3}$)$_{2}$,0.18009999999999993,eV/atom,
Ba$_{3}$Y(BO$_{2}$)$_{9}$,5.1876999999999995,eV/atom,
GdFeC$_{2}$,0.0,eV/atom,
HoCuAs$_{2}$,0.0,eV/atom,
Al$_{2}$CdS$_{4}$,2.4641,eV/atom,
Rb$_{2}$Cr$_{2}$O$_{7}$,2.765,eV/atom,
Ba$_{7}$Ir$_{6}$O$_{19}$,0.0,eV/atom,
CsNd$_{2}$CuSe$_{4}$,0.8771999999999998,eV/atom,
K$_{9}$Li$_{3}$I$_{2}$O$_{13}$,0.7542,eV/atom,
CaFeSbAs$_{2}$O$_{7}$,1.8443999999999998,eV/atom,
Ba$_{3}$ScCO$_{3}$F$_{7}$,4.9085,eV/atom,
LiCoH$_{24}$C$_{8}$(N$_{2}$O$_{3}$)$_{4}$,2.6831,eV/atom,
B$_{5}$H$_{8}$NO$_{12}$,0.0,eV/atom,
Na$_{5}$B$_{2}$P$_{3}$O$_{13}$,5.0786999999999995,eV/atom,
RbV$_{2}$Fe(AgO$_{4}$)$_{2}$,2.0185,eV/atom,
P$_{2}$H$_{4}$PbO$_{4}$,3.9446000000000003,eV/atom,[Pb+2].O=P([O-])(O)O.O=P([O-])(O)O
Np$_{3}$As$_{4}$,0.0,eV/atom,
HoVO$_{3}$,1.5710000000000006,eV/atom,
Gd$_{3}$OsO$_{7}$,0.0,eV/atom,
RbS,0.0,eV/atom,
Nd(FeGe)$_{2}$,0.0,eV/atom,
KGaBr$_{4}$,3.5771,eV/atom,
SiO$_{2}$,5.553599999999999,eV/atom,
LuB$_{2}$,0.12119999999999997,eV/atom,
PrFeSb$_{2}$,0.0,eV/atom,
TiAs$_{2}$,0.0,eV/atom,
UB$_{4}$Ru,0.0,eV/atom,
Mn$_{11}$Pd$_{21}$,0.0,eV/atom,
CoCu$_{2}$SnS$_{4}$,0.0,eV/atom,
Mn$_{6}$Ni$_{16}$P$_{7}$,0.0,eV/atom,
H$_{2}$Pb$_{3}$O$_{4}$,2.8454999999999995,eV/atom,
Ba$_{2}$AlCu$_{2}$F$_{11}$,0.5741999999999999,eV/atom,
Ce$_{2}$SO$_{2}$,0.0,eV/atom,
PuH$_{2}$,0,eV/atom,
K$_{2}$PdSe$_{10}$,1.0629,eV/atom,
K$_{2}$FeNi(CN)$_{6}$,1.5027,eV/atom,
MoH$_{12}$Pd(NO)$_{4}$,2.8621,eV/atom,
BaThBr$_{6}$,2.1637000000000004,eV/atom,
LiW$_{6}$CCl$_{18}$,0.0,eV/atom,
Cr$_{2}$(Hg$_{2}$O$_{3}$)$_{3}$,1.8298,eV/atom,
Ti$_{3}$Zn$_{3}$C,0.0,eV/atom,
HoNi$_{2}$,0.0,eV/atom,
Sm$_{2}$(CN$_{2}$)$_{3}$,2.4814,eV/atom,
Ni$_{4}$W,0.0,eV/atom,
CsHgCl$_{3}$,1.9882,eV/atom,
K$_{4}$(CoO$_{2}$)$_{7}$,0.0,eV/atom,
Cs$_{2}$NaBiCl$_{6}$,3.7163,eV/atom,
C$_{3}$N$_{4}$,0.873800000000001,eV/atom,
Rb$_{6}$In$_{2}$Co$_{2}$Si$_{9}$O$_{26}$,2.9462,eV/atom,
Sm$_{2}$Tl,0.0,eV/atom,
TmCd$_{2}$,0.0,eV/atom,
Li$_{3}$V$_{2}$(PO$_{4}$)$_{3}$,1.8647,eV/atom,
Tb$_{6}$IrI$_{10}$,0.007600000000000051,eV/atom,
BiF$_{5}$,1.8137999999999999,eV/atom,
V$_{2}$(CuO$_{2}$)$_{5}$,0.0,eV/atom,
Tc$_{2}$N,0.0,eV/atom,
NaLi$_{2}$N,0.0,eV/atom,
Rb$_{3}$P$_{6}$N$_{11}$,3.9206000000000003,eV/atom,
H$_{30}$S$_{2}$O$_{21}$,0.8025,eV/atom,
Sr$_{5}$V$_{3}$ClO$_{12}$,3.9446,eV/atom,
HoS$_{2}$,0.0,eV/atom,
P,0.0,eV/atom,
NdHg$_{2}$,0.0,eV/atom,
Sr(CoGe)$_{2}$,0.0,eV/atom,
Tl$_{2}$Se$_{3}$,1.0324,eV/atom,
Th$_{2}$MnN$_{3}$,0.0,eV/atom,
Zr$_{5}$SiSn$_{3}$,0.0,eV/atom,
LaB$_{5}$O$_{9}$,4.4878,eV/atom,
Pr$_{2}$NiO$_{4}$,1.3359999999999994,eV/atom,
Li$_{2}$RuO$_{3}$,0.0,eV/atom,
Yb$_{5}$Sn$_{3}$,0.0,eV/atom,
Re$_{7}$B$_{3}$,0.0,eV/atom,
DyIn$_{2}$Ni,0.0,eV/atom,
Si$_{2}$Mo$_{3}$,0.0,eV/atom,
Na$_{4}$Al$_{3}$(SiO$_{4}$)$_{3}$,0.2618999999999998,eV/atom,
Pr$_{3}$Ru,0.04100000000000037,eV/atom,
TmInRh,0.0,eV/atom,
CsIO$_{4}$,2.5288,eV/atom,
RbAuN$_{12}$,1.4603,eV/atom,
RbAu(CN)$_{2}$,3.1199,eV/atom,
SrHfO$_{3}$,3.6761000000000004,eV/atom,
Dy$_{5}$(CoB$_{3}$)$_{2}$,0.0,eV/atom,
CrCoGe,0.0,eV/atom,
Nd$_{2}$SO$_{2}$,2.8645,eV/atom,
CaCrF$_{5}$,2.8360000000000003,eV/atom,
RbCrCl$_{3}$,0.49519999999999986,eV/atom,
SmNiO$_{3}$,0.0,eV/atom,
Ba$_{2}$LiOsO$_{6}$,0.0,eV/atom,
K$_{2}$Ga$_{2}$Sb$_{3}$,0.9068999999999998,eV/atom,
Te$_{2}$Mo$_{3}$Se$_{7}$Br$_{10}$,1.4804000000000002,eV/atom,
BN,4.4806,eV/atom,
Hf$_{5}$Ge$_{4}$,0.0,eV/atom,
La$_{2}$CuS$_{4}$,1.6292,eV/atom,
SrAl$_{2}$O$_{4}$,4.0564,eV/atom,
Cu$_{2}$H$_{26}$C$_{6}$S$_{7}$N$_{12}$O$_{5}$,2.5054,eV/atom,
CaRhF$_{6}$,0.0,eV/atom,
TlIn(PS$_{3}$)$_{2}$,1.6968999999999999,eV/atom,
ZrNi$_{3}$,0.0,eV/atom,
Re(ClO)$_{3}$,0.6076000000000001,eV/atom,
PbSO$_{4}$,3.9870000000000005,eV/atom,
La$_{3}$InN,0.0,eV/atom,
La$_{5}$Re$_{3}$NiO$_{16}$,0.0,eV/atom,
KBa$_{2}$(PO$_{3}$)$_{5}$,5.1425,eV/atom,
Sr$_{3}$Ta$_{6}$(Si$_{2}$O$_{13}$)$_{2}$,3.0854999999999997,eV/atom,
K$_{3}$AlAs$_{2}$,0.4517,eV/atom,
Cs$_{2}$KAgF$_{6}$,0.6207999999999999,eV/atom,
Ca$_{3}$Au,0.0,eV/atom,
TbGa,0.0,eV/atom,
Ca$_{3}$SiO$_{5}$,3.9850999999999996,eV/atom,
GeW$_{2}$C$_{10}$(BrO$_{5}$)$_{2}$,2.1698,eV/atom,
AsRh$_{2}$,0.0,eV/atom,
UBe$_{13}$,0.0,eV/atom,
TlAs$_{5}$S$_{8}$,1.5672000000000001,eV/atom,
K$_{3}$P$_{6}$S$_{6}$N$_{7}$,3.5462,eV/atom,
Sr$_{6}$GaN$_{5}$,0.3096000000000001,eV/atom,
RbLiSO$_{4}$,5.2348,eV/atom,
KNaH$_{2}$,2.5014000000000003,eV/atom,
MnAl$_{12}$,0.0,eV/atom,
Cs$_{3}$Nb$_{2}$AsSe$_{11}$,1.197,eV/atom,
ZrV$_{2}$O$_{7}$,2.5909,eV/atom,
Sr(ScTe$_{2}$)$_{2}$,0.4482000000000008,eV/atom,
KZn$_{4}$(BO$_{3}$)$_{3}$,2.8165,eV/atom,
Fe$_{12}$N$_{5}$,0,eV/atom,
TiFeH$_{2}$,0.0,eV/atom,
CaYb$_{2}$O$_{4}$,0.0,eV/atom,
Hg(CO$_{2}$)$_{2}$,2.6357,eV/atom,
C,3.0059000000000005,eV/atom,
BaNb$_{7}$O$_{9}$,0.0,eV/atom,
Tb$_{3}$Al$_{5}$O$_{12}$,4.473000000000001,eV/atom,
HfInCu$_{2}$,0.0,eV/atom,
Zr$_{3}$Cu,0.0,eV/atom,
Rb$_{3}$Nb$_{2}$AsSe$_{11}$,1.1729,eV/atom,
BH$_{11}$C$_{4}$BrNF$_{4}$,5.1175999999999995,eV/atom,F[B-](F)(F)F.BrC[N+](C)(C)C
UC,0.0,eV/atom,
TaFeSi,0.0,eV/atom,
Li$_{2}$TiO$_{3}$,3.0339,eV/atom,
CsHSO$_{4}$,5.2778,eV/atom,
YGaI,0.0,eV/atom,
H$_{4}$I$_{3}$N,1.811,eV/atom,I[I-]I.[NH4+]
SbTe$_{7}$SXeCl(OF$_{4}$)$_{9}$,1.4909,eV/atom,
Ba$_{2}$InBiSe$_{5}$,1.1107,eV/atom,
HoZn$_{12}$,0.0,eV/atom,
CsAs$_{2}$Se$_{3}$,1.3891,eV/atom,
Sc$_{3}$OsC$_{4}$,0.0,eV/atom,
Na$_{2}$UO$_{4}$,2.0153999999999996,eV/atom,
TlIO$_{4}$,2.0027999999999997,eV/atom,
Ba$_{5}$Ru$_{2}$Cl$_{2}$O$_{9}$,0.0,eV/atom,
Ni$_{2}$P,0.0,eV/atom,
Ca$_{4}$Sb$_{2}$O,0.9093999999999998,eV/atom,
CaCuF$_{4}$,0.7140999999999998,eV/atom,
K$_{2}$Zr$_{2}$ZnH$_{12}$(OF$_{2}$)$_{6}$,5.1135,eV/atom,
Ti$_{2}$Ni(PO$_{5}$)$_{2}$,2.9847,eV/atom,
BaNd$_{2}$Ti$_{3}$O$_{10}$,2.4173000000000004,eV/atom,
GdInPd$_{2}$,0.0,eV/atom,
Zn$_{3}$BPO$_{7}$,3.1967999999999996,eV/atom,
PdI$_{2}$,0.8733000000000002,eV/atom,
UNiC$_{2}$,0.0,eV/atom,
YAlPd$_{2}$,0.0,eV/atom,
Cs$_{2}$Th(PS$_{3}$)$_{3}$,2.2752999999999997,eV/atom,
K$_{2}$WSe$_{4}$,1.2241,eV/atom,
YVO$_{4}$,2.9705,eV/atom,
InTeI,1.5625,eV/atom,
VRu,0.0,eV/atom,
NdAl$_{7}$Au$_{3}$,0.0,eV/atom,
UAs$_{2}$Pd,0.0,eV/atom,
H$_{4}$NClO$_{4}$,5.3564,eV/atom,
CaLa$_{2}$B$_{10}$O$_{19}$,4.5432999999999995,eV/atom,
Cu$_{3}$P$_{8}$(S$_{2}$Cl)$_{3}$,1.7878000000000003,eV/atom,
Ca(CoP)$_{2}$,0.0,eV/atom,
NaSc(SiO$_{3}$)$_{2}$,4.950100000000001,eV/atom,
Na$_{6}$CoSe$_{4}$,0.0,eV/atom,
HfSe$_{3}$,0.31709999999999994,eV/atom,
SiO$_{2}$,5.6222,eV/atom,
LaCu$_{4}$,0.0,eV/atom,
SrY$_{2}$Si$_{3}$O$_{10}$,4.9315999999999995,eV/atom,
H$_{14}$C$_{5}$(NO)$_{2}$,4.3708,eV/atom,O=C([O-])N(C)C.C[NH2+]C
NdCuSe$_{2}$,0.7506000000000004,eV/atom,
Na$_{4}$FeO$_{4}$,0.3336999999999999,eV/atom,
Ti$_{2}$InN,0.0,eV/atom,
SiI$_{3}$,2.9444999999999997,eV/atom,
Yb$_{5}$Cu$_{11}$Sn$_{8}$,0.0,eV/atom,
CeRu$_{2}$,0.0,eV/atom,
NaCe$_{4}$I$_{7}$N$_{2}$,0.0,eV/atom,
Ba$_{2}$MgWO$_{6}$,3.2230999999999996,eV/atom,
PrC$_{2}$,0.0,eV/atom,
LaIn$_{5}$Co,0.0,eV/atom,
P$_{3}$N$_{5}$,2.6235999999999997,eV/atom,
Na$_{3}$VF$_{6}$,2.5425,eV/atom,
Li$_{2}$NdGe,0.0,eV/atom,
LiMnBO$_{3}$,2.5635999999999997,eV/atom,
Tl$_{3}$BO$_{3}$,1.303,eV/atom,
BPd$_{3}$,0.0,eV/atom,
NaTeAu,0.0,eV/atom,
La$_{4}$H$_{9}$,0.0,eV/atom,
Rb$_{8}$N$_{3}$O,0.0,eV/atom,
CaAlSiH,0.3700000000000001,eV/atom,
Er(MnSn)$_{6}$,0.0,eV/atom,
NaCr(WO$_{4}$)$_{2}$,2.2640000000000002,eV/atom,
Fe$_{2}$Mo$_{3}$O$_{8}$,0.26290000000000013,eV/atom,
Na$_{2}$AlZnF$_{7}$,4.8225999999999996,eV/atom,
ZnAg$_{2}$SnS$_{4}$,0.20989999999999975,eV/atom,