formula,Property band_gap,Property band_gap units,Property SMILES
Mn$_{2}$PH$_{2}$CO$_{7}$,2.1783,eV/atom,
TlAs$_{3}$PbS$_{6}$,0.0,eV/atom,
Ba$_{10}$Al$_{3}$Ge$_{7}$,0.0,eV/atom,
VCdClO$_{3}$,2.7025,eV/atom,
HoRe$_{2}$,0.0,eV/atom,
Sm$_{2}$EuBeO$_{5}$,0.5827,eV/atom,
La$_{4}$Mo$_{2}$O$_{11}$,1.7542,eV/atom,
Fe$_{2}$Te$_{2}$Ru$_{2}$(CO)$_{11}$,1.6949,eV/atom,
Cr$_{2}$CuS$_{4}$,0.0,eV/atom,
CeIn$_{7}$Pt$_{2}$,0.0,eV/atom,
Rb$_{4}$Br$_{2}$O,0.5864,eV/atom,
Na$_{2}$Nd$_{2}$Ti$_{3}$O$_{10}$,2.0455,eV/atom,
WCl$_{3}$,0.0,eV/atom,
C$_{11}$N$_{4}$,2.4166000000000007,eV/atom,
YbPt$_{2}$,0.0,eV/atom,
Th$_{2}$HN$_{3}$,1.4164000000000003,eV/atom,
Ba$_{2}$Nd$_{7}$Si$_{11}$N$_{23}$,0.6173000000000002,eV/atom,
La$_{6}$Ni$_{6}$P$_{17}$,0.0,eV/atom,
Ba$_{4}$Cl$_{6}$O,4.3647,eV/atom,
Cs$_{2}$YbCl$_{4}$,5.0496,eV/atom,
KI,3.8512999999999997,eV/atom,
NdPO$_{4}$,5.3095,eV/atom,
Tb$_{4}$Zn$_{5}$Ge$_{6}$,0.0,eV/atom,
FeBiO$_{3}$,1.7847999999999997,eV/atom,
Cu$_{4}$Bi$_{7}$S$_{12}$,0.0,eV/atom,
Li$_{4}$Mo$_{3}$O$_{8}$,0.0,eV/atom,
In$_{2}$Ir,0.0,eV/atom,
Rb$_{2}$Ni$_{3}$Se$_{4}$,0.2661,eV/atom,
NaV$_{2}$P$_{2}$(H$_{4}$O$_{7}$)$_{2}$,0.0,eV/atom,
RbSnAsO$_{5}$,2.0723000000000003,eV/atom,
CsNiC$_{3}$(SN)$_{3}$,0.5401,eV/atom,
BaLi$_{4}$,0.0,eV/atom,
Lu$_{2}$Cu(B$_{2}$O$_{5}$)$_{2}$,0.6675,eV/atom,
La$_{3}$GaBr$_{3}$,0.0,eV/atom,
K$_{2}$CuH$_{12}$(SeO$_{7}$)$_{2}$,0.5889,eV/atom,
Np$_{3}$Se$_{4}$,0.0,eV/atom,
Tl$_{2}$AgI$_{3}$,2.3707,eV/atom,
Pr(In$_{2}$Au)$_{2}$,0.0,eV/atom,
Np$_{2}$H$_{12}$SO$_{14}$,0.24380000000000024,eV/atom,
LaTe$_{2}$Se,0.0,eV/atom,
TmCo$_{2}$B$_{2}$C,0.0,eV/atom,
CuBr,0.4859,eV/atom,
CsSnI$_{3}$,0.5537000000000001,eV/atom,
LaB$_{4}$,0.0,eV/atom,
KNd(SO$_{4}$)$_{2}$,5.4174,eV/atom,
Nb$_{2}$PdS$_{6}$,0.0,eV/atom,
RbTiCl$_{3}$,0.0,eV/atom,
YAlO$_{3}$,3.4964999999999997,eV/atom,
Sn$_{5}$(PO$_{5}$)$_{2}$,2.6984999999999997,eV/atom,
CoH$_{17}$S$_{2}$N$_{5}$ClO$_{4}$,0.4716,eV/atom,
NaNb$_{6}$O$_{15}$F,1.5654999999999997,eV/atom,
SrMgH$_{4}$,2.7087,eV/atom,
H$_{3}$CS,3.7157999999999998,eV/atom,
LiTaO$_{3}$,2.4878,eV/atom,
Ti$_{3}$Al,0.0,eV/atom,
YTl,0.0,eV/atom,
Ba$_{4}$Zr$_{3}$S$_{10}$,0.4663000000000004,eV/atom,
YN,0.1510000000000007,eV/atom,
LaCrAsO,0.0,eV/atom,
Na$_{2}$AlNiF$_{7}$,5.2253,eV/atom,
LaHBr$_{2}$,3.5973999999999995,eV/atom,
TiCrP,0.0,eV/atom,
Ca$_{3}$Mn$_{2}$O$_{7}$,0.22750000000000004,eV/atom,
K$_{3}$SmN$_{6}$,0.31920000000000004,eV/atom,
Sr$_{4}$MoN$_{4}$O,2.2746,eV/atom,
Nd$_{2}$MgGe$_{2}$,0.0,eV/atom,
ScAl$_{2}$,0.0,eV/atom,
TlAsSe$_{2}$,1.1440000000000001,eV/atom,
Rb$_{2}$UCl$_{5}$,0.11590000000000034,eV/atom,
In$_{2}$Pt,0.0,eV/atom,
BaMnBi$_{2}$,0.0,eV/atom,
K$_{2}$ErF$_{5}$,6.7986,eV/atom,
Na$_{2}$UF$_{6}$,0.3066,eV/atom,
Sr$_{3}$Cu$_{3}$(PO$_{4}$)$_{4}$,0.5370999999999997,eV/atom,
Fe$_{2}$O$_{3}$,0.0,eV/atom,
Hf$_{2}$Ni,0.0,eV/atom,
HfTa$_{2}$N$_{3}$,0.0,eV/atom,
Na$_{5}$SiP$_{3}$,1.3925,eV/atom,
HoMnSi,0.0,eV/atom,
DySnPt,0.0,eV/atom,
Eu$_{2}$SnS$_{4}$,0.0,eV/atom,
Yb$_{2}$Pt$_{2}$Pb,0.0,eV/atom,
TiCd,0.0,eV/atom,
TmRh,0.0,eV/atom,
Ti$_{2}$Ni,0.0,eV/atom,
GdAl$_{2}$,0.059500000000000774,eV/atom,
Ba$_{2}$MnNiClF$_{7}$,3.6099,eV/atom,
YbMnGe,0.0,eV/atom,
Th$_{3}$B$_{2}$C$_{3}$,0.0,eV/atom,
Cs$_{2}$NaYCl$_{6}$,5.0706,eV/atom,
KH$_{18}$OsN$_{6}$(ClO$_{2}$)$_{4}$,3.0483,eV/atom,
Ge$_{2}$S$_{3}$Br$_{2}$,2.4276,eV/atom,
CuH$_{8}$(ClO$_{5}$)$_{2}$,0.8254999999999999,eV/atom,
K$_{3}$GaSe$_{3}$,2.0865,eV/atom,
Ba(GaO$_{2}$)$_{2}$,3.0273000000000003,eV/atom,[Ba+2].O=C([O-])C1=CC(O)=C(O)C(O)=C1.O=C([O-])C1=CC(O)=C(O)C(O)=C1
HoCoO$_{3}$,0.0,eV/atom,
Tl$_{3}$AgI$_{5}$,1.0507,eV/atom,
InSe,1.0795999999999997,eV/atom,
Ba(InAu)$_{2}$,0.0,eV/atom,
CePd$_{5}$,0.0,eV/atom,
YCrO$_{4}$,0.6873,eV/atom,
SrH$_{3}$C$_{3}$O$_{7}$,2.8362,eV/atom,
LiSiNi$_{2}$,0.0,eV/atom,
LiSi$_{2}$BO$_{6}$,5.5866999999999996,eV/atom,
Ta$_{5}$As$_{4}$,0.0,eV/atom,
ZnTe,0.29490000000000016,eV/atom,
LiEu$_{2}$CBr$_{3}$N$_{2}$,0.7450999999999999,eV/atom,
Ce$_{3}$Pt$_{2}$,0.0,eV/atom,
Na$_{2}$MoO$_{4}$,4.1562,eV/atom,
BiI,0.8279000000000001,eV/atom,
VPt,0.0,eV/atom,
B$_{5}$W$_{2}$,0.0,eV/atom,
PuB$_{4}$Os,0.0,eV/atom,
La$_{3}$Te$_{4}$,0.0,eV/atom,
BaB$_{4}$O$_{7}$,5.1593,eV/atom,
Rb$_{2}$Te$_{2}$Pd,0.5711000000000004,eV/atom,
CsPr(PO$_{3}$)$_{4}$,5.4728,eV/atom,
TiO$_{2}$,1.6966,eV/atom,
Sm$_{3}$InC,0.0,eV/atom,
PbI$_{2}$,2.4097999999999997,eV/atom,
Ba$_{4}$I$_{6}$O,3.9787999999999997,eV/atom,
Na$_{2}$ZrSe$_{3}$,1.3176000000000003,eV/atom,
Na$_{3}$CuB$_{8}$H$_{17}$O$_{23}$,0.6148,eV/atom,
KMgF$_{3}$,6.9536999999999995,eV/atom,
TbFeSi,0.0,eV/atom,
Sr$_{2}$VN$_{3}$,1.5183999999999997,eV/atom,
NaNi$_{3}$P$_{4}$H$_{8}$NO$_{16}$,4.3698,eV/atom,
KLiPH$_{2}$O$_{4}$F,4.9035,eV/atom,
Li$_{2}$AgPb,0.0,eV/atom,
TlHgAsS$_{3}$,1.5811000000000002,eV/atom,
La$_{2}$Al$_{2}$I,0.0,eV/atom,
Nb$_{3}$Os,0.0,eV/atom,
NbAs$_{2}$,0.027499999999999858,eV/atom,
Cs$_{2}$TiCl$_{6}$,2.2291,eV/atom,
CaGaPt,0.029300000000000104,eV/atom,
SmGaPd$_{2}$,0.0,eV/atom,
SrCu$_{3}$(SnO$_{3}$)$_{4}$,0.45310000000000006,eV/atom,
BaSiO$_{3}$,2.1249000000000002,eV/atom,
Na$_{3}$Pr$_{14}$(RuO$_{6}$)$_{6}$,0.0,eV/atom,
Pr$_{2}$Os$_{3}$,0.0,eV/atom,
LaF$_{3}$,6.0452,eV/atom,
Pt(Cl$_{3}$O)$_{2}$,0.0,eV/atom,
BaBPO$_{5}$,5.4963,eV/atom,
HfNCl,2.2055000000000002,eV/atom,
RbCdH$_{2}$I$_{3}$O,2.49,eV/atom,
RbCS(OF)$_{3}$,5.4737,eV/atom,
FeF$_{2}$,3.2415,eV/atom,
As$_{2}$PbS$_{4}$,0.7649999999999997,eV/atom,
Ni$_{3}$(AsO$_{4}$)$_{2}$,2.3598000000000003,eV/atom,
MnC$_{5}$BrO$_{5}$,2.7622,eV/atom,[Br-].O=C=[Mn+](=C=O)(=C=O)(=C=O)=C=O
Sr$_{3}$Ga$_{3}$N$_{5}$,1.3625000000000003,eV/atom,
ZnSiN$_{2}$,3.1948,eV/atom,
HfPd$_{3}$,0.0,eV/atom,
V$_{4}$S$_{9}$Br$_{4}$,0.6574,eV/atom,
Mn$_{4}$C$_{15}$S$_{4}$O$_{15}$,1.9025999999999998,eV/atom,
FeS$_{4}$N$_{4}$Cl$_{5}$,1.0118,eV/atom,
FeC$_{3}$SO$_{3}$,0.33940000000000003,eV/atom,
Ba$_{38}$Na$_{58}$Li$_{26}$N,0.030500000000000194,eV/atom,
Na$_{2}$PrO$_{3}$,0.0,eV/atom,
RbLiMoO$_{4}$,4.5427,eV/atom,
Ba$_{2}$TiO$_{4}$,4.1473,eV/atom,
YbCd,0.0,eV/atom,
SmAs$_{2}$Au,0.0,eV/atom,
Na$_{2}$Cd(SiO$_{3}$)$_{2}$,2.87,eV/atom,
NdH$_{2}$,0.0,eV/atom,
Yb$_{3}$Ge$_{5}$,0.0,eV/atom,
NdAlNi,0.0,eV/atom,
Rb$_{2}$NaH$_{5}$(CO$_{4}$)$_{2}$,4.1978,eV/atom,
EuNi$_{2}$B$_{2}$C,0.0,eV/atom,
BiBr$_{3}$,2.8692,eV/atom,
In$_{3}$SnI$_{5}$,2.0773,eV/atom,
Dy$_{2}$Ga$_{8}$Fe,0.0,eV/atom,
ZnNi$_{10}$P$_{3}$,0,eV/atom,
Na$_{2}$CdH$_{4}$(SO$_{5}$)$_{2}$,3.9833,eV/atom,
TlP,0.0,eV/atom,
Ba$_{3}$Si$_{2}$(B$_{3}$O$_{8}$)$_{2}$,5.3993,eV/atom,
Ag$_{2}$WO$_{4}$,1.7809,eV/atom,
YGaPd$_{2}$,0.0,eV/atom,
LiTiS$_{2}$,0.0,eV/atom,
RbLiCrO$_{4}$,2.9916,eV/atom,
TlS,0.7034000000000002,eV/atom,
CaZn$_{2}$,0.0,eV/atom,
Re(Te$_{4}$Cl$_{3}$)$_{2}$,0.21110000000000007,eV/atom,
SnPt$_{3}$C,0.0,eV/atom,
CrIr$_{3}$,0.0,eV/atom,
TmGe$_{3}$,0.0,eV/atom,
Ba$_{2}$VI$_{5}$O$_{17}$,2.8495,eV/atom,[V+5].[Ba+2].O=I(=O)[O-].O=I(=O)[O-].O=I(=O)[O-].O=I(=O)[O-].O=I(=O)[O-].O=I(=O)[O-].O=I(=O)[O-]
LaAlO$_{3}$,3.5544000000000002,eV/atom,
Ce$_{5}$NiPb$_{3}$,0.0,eV/atom,
PuNi$_{3}$,0.0,eV/atom,
Cd$_{2}$Re$_{2}$O$_{7}$,0.0,eV/atom,
SrLiBS$_{3}$,2.3921999999999994,eV/atom,
Nb$_{2}$Tl$_{3}$CuSe$_{12}$,0.9842999999999997,eV/atom,
Fe$_{5}$O$_{7}$,0.0,eV/atom,
U(OF)$_{2}$,2.0451,eV/atom,
NaFe(TeO$_{3}$)$_{2}$,2.1497,eV/atom,
Er(ClO$_{4}$)$_{3}$,5.0118,eV/atom,
Cs$_{5}$CeNi$_{2}$(NO$_{2}$)$_{12}$,0.27370000000000005,eV/atom,
Mn$_{3}$H$_{2}$Se$_{3}$O$_{10}$,2.7170999999999994,eV/atom,
MnF$_{2}$,2.8743,eV/atom,
CaIn$_{4}$Pd,0.0,eV/atom,
BaGe$_{3}$Pt,0.0,eV/atom,
CsGdHgSe$_{3}$,1.2745000000000002,eV/atom,
Ti$_{4}$O$_{5}$,0.0,eV/atom,
Pr$_{3}$Sn$_{13}$Rh$_{4}$,0.0,eV/atom,
SmCoSb$_{3}$,0.0,eV/atom,
BaCaVP$_{2}$O$_{9}$,2.5382,eV/atom,
Nb$_{5}$B$_{6}$,0.0,eV/atom,
Ba$_{5}$Sb$_{3}$,0.0,eV/atom,
Ga$_{4}$BiAs$_{3}$,0.0,eV/atom,
Cs$_{3}$Cr$_{2}$I$_{9}$,1.0042,eV/atom,
NaHNO$_{2}$,2.9794,eV/atom,
Er$_{3}$CrB$_{7}$,0.0,eV/atom,
K$_{3}$NbSe$_{4}$,1.8249,eV/atom,
CoSn,0.0,eV/atom,
Pr(ErS$_{2}$)$_{3}$,1.0095,eV/atom,
ZnSi$_{4}$As$_{2}$(H$_{3}$C)$_{12}$,2.7615999999999996,eV/atom,
Li$_{2}$SnIr,0.0,eV/atom,
NaMo$_{3}$P$_{3}$O$_{16}$,1.7417999999999998,eV/atom,
Gd$_{2}$Ni$_{7}$,0.0,eV/atom,
La$_{4}$Ti$_{9}$O$_{24}$,2.8636,eV/atom,
Rb$_{2}$FeH$_{2}$Cl$_{5}$O,2.1756,eV/atom,
Nd(AsRh)$_{2}$,0.0,eV/atom,
Se$_{2}$NCl$_{3}$,1.2001,eV/atom,
PBr$_{2}$N,3.1124,eV/atom,BrN1P(Br)(Br)=NPNPNP(Br)(Br)(Br)N(Br)P1(Br)(Br)Br
P$_{3}$Pb$_{5}$ClO$_{12}$,3.3891000000000004,eV/atom,
Pu$_{2}$Si$_{4}$Tc$_{3}$,8.999999999996788E-4,eV/atom,
VSnRh$_{2}$,0.0,eV/atom,
RbEu$_{3}$F$_{10}$,0.0,eV/atom,
ZnPt,0.0,eV/atom,
Na$_{5}$FeS$_{4}$,0.7966,eV/atom,
Os$_{3}$C$_{8}$(SO$_{4}$)$_{2}$,1.7177,eV/atom,
Tl$_{4}$Mo(CN)$_{8}$,2.1969,eV/atom,
Ca(BRh)$_{2}$,0.0,eV/atom,
NaLi$_{2}$(RuO$_{2}$)$_{6}$,0.0,eV/atom,
Y$_{2}$Si$_{2}$O$_{7}$,4.6683,eV/atom,
Sm(GeRh)$_{2}$,0.0,eV/atom,
KCrH$_{18}$N$_{6}$(ClO$_{2}$)$_{4}$,3.819,eV/atom,
RbBa$_{2}$N$_{15}$,3.8238,eV/atom,
LuOs$_{2}$,0.0,eV/atom,
Ca(BS$_{2}$)$_{2}$,3.0095,eV/atom,
CeMgGa,0.0,eV/atom,
Co$_{2}$(GeSe)$_{3}$,0.4079999999999995,eV/atom,
YSn$_{3}$,0.0,eV/atom,
NdBr$_{3}$,2.9211,eV/atom,
NaSe,0.0,eV/atom,
KV(CuS$_{2}$)$_{2}$,1.0730000000000004,eV/atom,
DyTaO$_{4}$,4.1277,eV/atom,
U(BRu)$_{4}$,0.0,eV/atom,
CdSnP$_{2}$,0.2684000000000002,eV/atom,
Na$_{2}$Mn$_{2}$Se$_{3}$,0.47920000000000007,eV/atom,
Fe$_{2}$Si$_{2}$SbO$_{9}$,0.10139999999999993,eV/atom,
Ca$_{2}$As$_{4}$Xe$_{5}$F$_{34}$,2.8339999999999996,eV/atom,
Eu$_{3}$BrO$_{4}$,0.007199999999999873,eV/atom,
ScB$_{2}$C,0.0,eV/atom,
Cs$_{2}$Au$_{2}$Se$_{3}$,1.4632999999999998,eV/atom,
Ba$_{2}$ErSbO$_{6}$,3.3776,eV/atom,
Cd$_{3}$P$_{2}$,0.0018000000000002458,eV/atom,
La$_{3}$OsO$_{7}$,0.1687000000000003,eV/atom,
BiRhO$_{3}$,0.4075999999999995,eV/atom,
Sm$_{4}$Au$_{2}$O$_{9}$,2.0219,eV/atom,
K$_{2}$Sn$_{2}$O$_{3}$,1.2308999999999997,eV/atom,
Li$_{3}$Pr$_{2}$(BO$_{3}$)$_{3}$,4.7278,eV/atom,
Na$_{2}$CoCl$_{4}$,0.7301,eV/atom,
Tm$_{15}$S$_{22}$,0.0,eV/atom,
MgSiO$_{3}$,4.7095,eV/atom,
CaCu(GeO$_{3}$)$_{2}$,0.3338000000000001,eV/atom,
U$_{2}$H$_{14}$S$_{2}$O$_{19}$,2.1173,eV/atom,
TmSn$_{2}$,0.0,eV/atom,
NbSe$_{2}$,0.0,eV/atom,
La$_{3}$Bi$_{4}$Au$_{3}$,0.44010000000000016,eV/atom,
Ba$_{2}$CaP$_{4}$(H$_{3}$O$_{8}$)$_{2}$,5.4657,eV/atom,
Ho$_{2}$MgSe$_{4}$,1.3267,eV/atom,
InTeO$_{3}$F,3.1763999999999997,eV/atom,
NaAl(SiO$_{3}$)$_{2}$,5.2254000000000005,eV/atom,
VCrO$_{4}$,2.2102000000000004,eV/atom,
INO$_{4}$,0.03570000000000029,eV/atom,
LiErSn$_{2}$,0.0,eV/atom,
Fe$_{3}$C,0.0,eV/atom,
MoW$_{11}$,0.0,eV/atom,
Eu(BiPd)$_{2}$,0.0,eV/atom,
Li$_{2}$Si$_{2}$O$_{5}$,5.154,eV/atom,
Yb,0.0,eV/atom,
Rb$_{2}$VAgS$_{4}$,1.3325,eV/atom,
SrInAu,0.0,eV/atom,
H$_{3}$I$_{3}$N$_{2}$,0.8184,eV/atom,IN(I)I.N
Na$_{5}$As$_{4}$,0.0,eV/atom,
Mg$_{2}$GeO$_{4}$,3.0734000000000004,eV/atom,
LaVO$_{4}$,3.5130999999999997,eV/atom,
TiZn(BiO$_{3}$)$_{2}$,1.9356,eV/atom,
BaCu(SeO$_{3}$)$_{2}$,0.3527,eV/atom,
NaAgO,1.2098,eV/atom,
AsO$_{2}$,3.3566000000000003,eV/atom,
AlP$_{3}$(HO$_{2}$)$_{6}$,5.4786,eV/atom,[Al+3].O=P([O-])([O-])OP(=O)([O-])OP(=O)(O)O.O.O
CaB$_{3}$H$_{5}$O$_{8}$,5.5273,eV/atom,
SiO$_{2}$,5.696199999999999,eV/atom,
Hg$_{3}$TeO$_{6}$,0.6009,eV/atom,
Sr$_{2}$ErCu$_{3}$(PbO$_{4}$)$_{2}$,0.0,eV/atom,
DyGePd$_{2}$,0.0,eV/atom,
Be$_{2}$Te$_{7}$Cl$_{6}$,1.2797,eV/atom,
K$_{2}$MnV$_{4}$O$_{12}$,1.9929999999999999,eV/atom,
Tm$_{3}$Ge$_{3}$Ru$_{2}$,0.0,eV/atom,
TbFe$_{3}$,0.0034000000000000696,eV/atom,
Sc(GaFe)$_{6}$,0.0,eV/atom,
CeB$_{2}$Rh$_{3}$,0.0,eV/atom,
NdNO$_{4}$,1.1368,eV/atom,
Sm$_{3}$Co,0.0,eV/atom,
BaY(CoO$_{2}$)$_{4}$,0.5722999999999998,eV/atom,
Cs$_{2}$Mo(SO)$_{2}$,2.4625000000000004,eV/atom,
InAsPd$_{5}$,0.0,eV/atom,
Mg$_{2}$BiPO$_{6}$,3.6187,eV/atom,
K$_{2}$SnP$_{2}$O$_{7}$,4.1772,eV/atom,
CuAs$_{2}$PbO$_{7}$,0.45210000000000017,eV/atom,
Li$_{5}$Cl$_{3}$O,3.6165000000000003,eV/atom,
Bi$_{2}$Pd$_{5}$,0.0,eV/atom,
Li$_{2}$NiO$_{3}$,1.3307000000000002,eV/atom,
ZrB$_{2}$,0.0,eV/atom,
Na$_{6}$U(SO$_{5}$)$_{4}$,0.135,eV/atom,
V$_{3}$P$_{4}$Pb$_{2}$O$_{17}$,2.0313,eV/atom,
AlH$_{10}$N$_{2}$OF$_{5}$,6.1343,eV/atom,[F-].[F-].[F-].[F-].[F-].[Al+3].O.[NH4+].[NH4+]
SnPbS$_{2}$,1.6801,eV/atom,
TmNi$_{5}$,0.0,eV/atom,
ZnS$_{2}$,1.4249999999999998,eV/atom,
Sm(NiSb)$_{2}$,0.0,eV/atom,
PuSn$_{3}$,0.0,eV/atom,
MnNi,0.0,eV/atom,
NbNiTe$_{5}$,0.0,eV/atom,
BiPtPb$_{3}$,0.0,eV/atom,
Na$_{2}$VOF$_{4}$,2.9353,eV/atom,
As$_{3}$Rh,0.0,eV/atom,
SO$_{3}$,5.1448,eV/atom,
Ba$_{3}$Ge$_{4}$,0.0,eV/atom,
PrMnO$_{3}$,0.057000000000000384,eV/atom,
U$_{2}$Cr$_{30}$P$_{19}$,0.0,eV/atom,
VFe$_{2}$Sn,0.0,eV/atom,
In$_{2}$CoS$_{4}$,0.0,eV/atom,
Er(NiSb)$_{2}$,0.0,eV/atom,
Pu$_{2}$Co$_{17}$,0.0,eV/atom,
Ba$_{2}$Tl(NO$_{2}$)$_{5}$,0.7217999999999999,eV/atom,
CaPdF$_{4}$,1.1613000000000002,eV/atom,
Te$_{2}$Rh$_{3}$,0.0,eV/atom,
Si,0,eV/atom,
SrCu$_{5}$,0.019099999999999895,eV/atom,
V$_{3}$S$_{4}$,0.0,eV/atom,
Ba$_{6}$Si$_{25}$,0.008399999999999963,eV/atom,
BaCaSn$_{3}$,0.0,eV/atom,
RbMgCl$_{3}$,4.7503,eV/atom,
Tb(SiNi)$_{2}$,0.0,eV/atom,
Cr$_{2}$Hg$_{2}$H$_{2}$O$_{9}$,2.1669,eV/atom,
NaNbO$_{3}$,2.4098,eV/atom,
BaCu(SeO$_{3}$)$_{2}$,0.4377000000000002,eV/atom,
MoSe$_{2}$,1.2530999999999994,eV/atom,
La$_{2}$Ga$_{12}$Ni,0.0,eV/atom,
Co$_{5}$Te$_{4}$(ClO$_{6}$)$_{2}$,2.3649000000000004,eV/atom,
BaZnSnS$_{4}$,2.3609999999999998,eV/atom,
TaCu$_{3}$Te$_{4}$,1.1379000000000001,eV/atom,
PrAl,0.0,eV/atom,
H$_{4}$S$_{4}$N$_{6}$O,2.2104999999999997,eV/atom,
EuCd$_{2}$,0.0,eV/atom,
Ba$_{5}$Sn$_{3}$,0.0,eV/atom,
Sr$_{2}$HoRuO$_{6}$,0.0,eV/atom,
DyH$_{9}$C$_{5}$(NO$_{4}$)$_{2}$,4.5207,eV/atom,
SrCoP$_{2}$O$_{7}$,3.0355,eV/atom,
LiEu(PO$_{3}$)$_{4}$,0.0,eV/atom,
K$_{2}$Mo$_{9}$S$_{11}$,0.0,eV/atom,
ScTaO$_{4}$,4.0258,eV/atom,
YMg$_{2}$,0.0,eV/atom,
Sm$_{4}$MgRh,0.0,eV/atom,
YbCoO$_{3}$,0.0,eV/atom,
U(SiPt)$_{2}$,0.0,eV/atom,
V$_{2}$Co(PO$_{5}$)$_{2}$,1.6270000000000002,eV/atom,
Ca$_{4}$Si$_{6}$Pb$_{6}$Cl$_{2}$O$_{21}$,3.3861,eV/atom,
Ti$_{2}$PCl$_{13}$,2.3095999999999997,eV/atom,
FeNiP,0.0,eV/atom,
Rb$_{6}$U$_{5}$V$_{2}$O$_{23}$,1.747,eV/atom,
Sr(BeN)$_{2}$,1.8494000000000002,eV/atom,
Er$_{2}$S$_{2}$O,2.6472,eV/atom,
Rb$_{3}$FeO$_{3}$,1.9386999999999999,eV/atom,
CaCu(GeO$_{3}$)$_{2}$,0.0,eV/atom,
PrCu$_{6}$,0.0,eV/atom,
Ba(TeP$_{2}$)$_{2}$,1.1654999999999998,eV/atom,
PH$_{7}$N$_{2}$O$_{3}$,4.5874,eV/atom,
SrHgO$_{2}$,2.2579,eV/atom,
Na$_{5}$Cr$_{3}$F$_{14}$,2.9191000000000003,eV/atom,
MnH$_{16}$C$_{4}$(NCl$_{2}$)$_{2}$,1.7388000000000001,eV/atom,
LiSnPd$_{2}$,0.0,eV/atom,
DyAgGe,0.0,eV/atom,
Sb$_{2}$H$_{30}$C$_{9}$(NCl$_{3}$)$_{3}$,3.1511,eV/atom,
Ba(Ge$_{3}$Pt)$_{4}$,0.0,eV/atom,
CdHgC$_{4}$(SN)$_{4}$,2.4633,eV/atom,
Ba$_{5}$(FeS$_{2}$)$_{9}$,0.0,eV/atom,
HoTe$_{2}$ClO$_{5}$,2.9145,eV/atom,
KCa(H$_{2}$N)$_{3}$,2.1993,eV/atom,
VO,1.1025,eV/atom,
Sr(PN$_{2}$)$_{2}$,4.264099999999999,eV/atom,
CaCu$_{2}$O$_{3}$,0.0,eV/atom,
UTeAs,0.0,eV/atom,
BaYb$_{2}$NiO$_{5}$,0.6222999999999999,eV/atom,
TaH$_{2}$,0.0,eV/atom,
Sc$_{2}$TeO$_{6}$,2.8859999999999997,eV/atom,
VI$_{2}$,1.0495999999999994,eV/atom,
Al$_{2}$NiO$_{4}$,3.1049999999999995,eV/atom,
AgBH$_{8}$C$_{4}$(N$_{2}$F)$_{4}$,3.7801,eV/atom,
Mn$_{3}$(AgO$_{2}$)$_{4}$,0.6029999999999998,eV/atom,
La$_{3}$PbC,0.0,eV/atom,
PSe,2.2420999999999998,eV/atom,
Cs$_{6}$Fe$_{2}$O$_{5}$,1.5145,eV/atom,
SmAl$_{3}$Pd$_{2}$,0.0,eV/atom,
SbPt$_{3}$,0.0,eV/atom,
Ba$_{2}$YbSbO$_{6}$,0.0,eV/atom,
Al$_{2}$Si$_{2}$O$_{9}$,0.3472,eV/atom,
K$_{2}$Cr$_{2}$NiO$_{10}$,0.1802999999999999,eV/atom,
ErGeIr,0.0,eV/atom,
Ba$_{2}$Dy(CuO$_{2}$)$_{4}$,0.0,eV/atom,
USiSe,0.0,eV/atom,
Na$_{5}$Ca$_{4}$P$_{4}$O$_{16}$F,4.7165,eV/atom,
RbRe$_{3}$Br$_{10}$,0.9907999999999999,eV/atom,
Si$_{3}$Ag$_{3}$(SnP$_{3}$)$_{2}$,0.2951000000000006,eV/atom,
SiC,1.9716000000000005,eV/atom,
CsAlH$_{24}$(SO$_{10}$)$_{2}$,0.1069,eV/atom,
Ba$_{3}$InRu$_{2}$O$_{9}$,0.008000000000000007,eV/atom,
MgCr$_{2}$O$_{4}$,2.0717999999999996,eV/atom,
U(CrSi)$_{2}$,0.0,eV/atom,
CeMgSn,0.0,eV/atom,
Sr(ClO)$_{2}$,1.1581000000000001,eV/atom,
RbGdS$_{2}$,1.7435,eV/atom,
NpP,0.0,eV/atom,
Tl$_{4}$Sn$_{5}$S$_{12}$,1.3232999999999997,eV/atom,
NdZn$_{2}$,0.0,eV/atom,
TmMgGa,0.0,eV/atom,
Ba(ScTe$_{2}$)$_{2}$,0.43100000000000005,eV/atom,
Ga$_{9}$Ir$_{2}$,0.0,eV/atom,
LiAlAs$_{2}$O$_{7}$,3.0496999999999996,eV/atom,
Rb$_{3}$BiBr$_{6}$,3.3,eV/atom,
DyInPt$_{2}$,0.0,eV/atom,
Cr$_{2}$Co,0.0,eV/atom,
BaZr(BO$_{3}$)$_{2}$,4.1141,eV/atom,
Hf,0.0,eV/atom,
Dy(GeRu)$_{2}$,0.0,eV/atom,
Rb$_{2}$CrCl$_{4}$,0.0,eV/atom,
ThTl$_{3}$,0.0,eV/atom,
K$_{3}$AuSe$_{13}$,0.7186000000000001,eV/atom,
FeSiNi,0.0,eV/atom,
FeP(H$_{2}$O$_{3}$)$_{2}$,2.6724,eV/atom,
Tb$_{5}$Si$_{3}$C,0.0,eV/atom,
Sb(Cl$_{3}$O)$_{2}$,0.0,eV/atom,
ZrH$_{27}$C$_{8}$N$_{2}$Cl$_{5}$O$_{2}$,3.926,eV/atom,
La$_{5}$Ti$_{4}$FeO$_{17}$,1.4488000000000003,eV/atom,
ZrGaNi,0.0,eV/atom,
TmSnRh,0.0,eV/atom,
NaSmTiO$_{4}$,2.4267999999999996,eV/atom,
Y(Re$_{2}$Si)$_{2}$,0.0,eV/atom,
CsAgF$_{3}$,0.0,eV/atom,
Fe$_{2}$Mo$_{4}$N,0.0,eV/atom,
Cr$_{4}$Si$_{2}$Br$_{2}$O$_{7}$,2.1420000000000003,eV/atom,
Na$_{2}$CoP$_{2}$O$_{7}$,3.0065,eV/atom,
CaBiCO$_{4}$F,1.4759999999999995,eV/atom,
Nb$_{5}$(AsPd)$_{4}$,0.0,eV/atom,
U(MnGe)$_{2}$,0.0,eV/atom,
KMn$_{2}$Cr$_{2}$O$_{10}$,0.3526,eV/atom,
CeAsRuO,0.0,eV/atom,
Na$_{4}$Hf$_{2}$(GeO$_{4}$)$_{3}$,3.6565000000000003,eV/atom,
LaGaNi,0.0,eV/atom,
Sc$_{4}$NCl$_{6}$,0.0,eV/atom,
LiBi(PdO$_{2}$)$_{2}$,0.44599999999999973,eV/atom,
Bi$_{2}$MoO$_{6}$,0.5171999999999999,eV/atom,
NaW$_{6}$CCl$_{18}$,0.1048,eV/atom,
NiH$_{20}$S$_{2}$(NO$_{7}$)$_{2}$,5.0511,eV/atom,
Al$_{5}$W,0.0,eV/atom,
Sr$_{5}$(InBi$_{3}$)$_{2}$,0.0,eV/atom,
Gd$_{3}$InN,0.0,eV/atom,
Mn$_{2}$Au,0.0,eV/atom,
Rb$_{2}$AgAu$_{3}$I$_{8}$,0.756,eV/atom,
Li$_{3}$(CuO$_{2}$)$_{2}$,0.0,eV/atom,
Na$_{2}$S$_{2}$O$_{3}$,4.0606,eV/atom,
Na$_{2}$MgH$_{4}$(SO$_{4}$)$_{2}$,5.1274999999999995,eV/atom,
K$_{2}$P$_{3}$H$_{7}$O$_{9}$,6.462,eV/atom,
NaCu$_{2}$(SO$_{5}$)$_{2}$,0.07489999999999997,eV/atom,
K$_{2}$Mn$_{2}$(MoO$_{4}$)$_{3}$,3.0261,eV/atom,
Hf$_{4}$Co$_{7}$Ge$_{6}$,0.0,eV/atom,
Na$_{2}$Te$_{2}$As,1.0608,eV/atom,
CaZnSn,0.0,eV/atom,
GaTeI$_{7}$,1.8586,eV/atom,
Sr$_{2}$TaFeO$_{6}$,2.0999,eV/atom,
MgP$_{2}$(H$_{8}$O$_{5}$)$_{2}$,5.5068,eV/atom,
Zn$_{3}$(InS$_{3}$)$_{2}$,0.0,eV/atom,
Cu$_{7}$S$_{4}$,0.0,eV/atom,
AlPO$_{4}$,5.3232,eV/atom,
KPr$_{6}$OsI$_{10}$,0.0,eV/atom,
BaH$_{5}$BrO$_{3}$,4.7616,eV/atom,[Br-].[Br-].[Ba+2].[H]O[H].[H]O[H].[H]O[H]
YbIr,0.0,eV/atom,
CdGeO$_{3}$,1.4172,eV/atom,
PrScO$_{3}$,4.2587,eV/atom,
CsSO$_{3}$,5.110399999999999,eV/atom,
MnBiAsO$_{5}$,2.382,eV/atom,
Rb$_{5}$Tl$_{11}$Cd$_{2}$,0.0,eV/atom,
BaLaGaO$_{4}$,3.9475,eV/atom,[Ba+2].[La+3].O=C([O-])C1=CC(O)=C(O)C(O)=C1.O=C([O-])C1=CC(O)=C(O)C(O)=C1.O=C([O-])C1=CC(O)=C(O)C(O)=C1.O=C([O-])C1=CC(O)=C(O)C(O)=C1.O=C([O-])C1=CC(O)=C(O)C(O)=C1
In$_{2}$Cu$_{3}$(PO$_{4}$)$_{4}$,0.0,eV/atom,
TbHg$_{2}$,0.0,eV/atom,
Ni(SbO$_{3}$)$_{2}$,0.8810000000000002,eV/atom,
MgSiO$_{3}$,4.5951,eV/atom,
Pr$_{3}$Sn,0.0,eV/atom,
NdSbMo$_{2}$O$_{9}$,3.2597,eV/atom,
Li$_{5}$La$_{3}$Nb$_{2}$O$_{12}$,3.2624,eV/atom,
Na$_{3}$GeSe$_{3}$,1.8880999999999997,eV/atom,
Ba$_{2}$V$_{3}$BiO$_{11}$,3.2226999999999997,eV/atom,
MgSeO$_{4}$,3.1255,eV/atom,
La$_{3}$Tl$_{5}$,0.0,eV/atom,
TiFeH,0.0,eV/atom,
Ni$_{2}$SbTe$_{2}$,0.0,eV/atom,
ZrNi$_{2}$Sb,0.0,eV/atom,
ZnS,2.0206,eV/atom,
Zr$_{5}$Te$_{6}$,0.00509999999999966,eV/atom,
Li$_{2}$B$_{2}$S$_{5}$,2.4427000000000003,eV/atom,
Gd$_{5}$CuBi$_{3}$,0.0,eV/atom,
Al$_{17}$(Re$_{2}$Si)$_{2}$,0.0,eV/atom,
YbFeSi,0.0,eV/atom,
RbSb,0.0,eV/atom,
TiFe,0.0,eV/atom,
KCo,0.0,eV/atom,
Lu$_{5}$Rh$_{3}$,0.0,eV/atom,
Yb$_{2}$Sn,0.0,eV/atom,
RbMnPO$_{4}$,2.8775,eV/atom,
Ta$_{3}$Br$_{7}$,1.2286000000000001,eV/atom,
TbCd$_{2}$F$_{8}$,0.0,eV/atom,
LaInRh,0.0,eV/atom,
Be$_{12}$Nb,0.0,eV/atom,
VSi$_{2}$,0.0,eV/atom,
Rb$_{2}$IO,0.5497000000000001,eV/atom,
CeCu$_{5}$Sn,0.0,eV/atom,
Sr$_{2}$Sc$_{2}$B$_{4}$O$_{11}$,4.3418,eV/atom,
VP$_{2}$O$_{7}$,1.518,eV/atom,
Cs$_{3}$Au$_{2}$Br$_{11}$,1.1427,eV/atom,
CoSn$_{2}$H$_{12}$(OF)$_{6}$,2.5957,eV/atom,
Tb$_{4}$CoB$_{13}$,0.0,eV/atom,
Pr$_{2}$Te$_{4}$MoO$_{14}$,3.1934,eV/atom,
La$_{2}$ZnNi$_{2}$,0.0,eV/atom,
KTe,0.6627000000000001,eV/atom,
KGaF$_{4}$,5.2165,eV/atom,
NiP$_{3}$,0.0,eV/atom,
ZnSiO$_{3}$,3.3916999999999997,eV/atom,
TaF$_{5}$,5.5329999999999995,eV/atom,
Ba$_{4}$Ir$_{3}$O$_{10}$,0.0,eV/atom,
Li$_{11}$La$_{12}$Fe$_{3}$O$_{28}$,2.3348000000000004,eV/atom,
Fe$_{2}$CuS$_{3}$,0.0,eV/atom,