formula,Property band_gap,Property band_gap units,Property SMILES
V$_{2}$Cu$_{3}$H$_{24}$(OF)$_{12}$,0.002799999999999969,eV/atom,
Cr$_{3}$S$_{4}$,0.0,eV/atom,
Ti$_{3}$Sn,0.0,eV/atom,
Ni$_{4}$(Bi$_{4}$I)$_{3}$,0.0,eV/atom,
Ba$_{2}$TmCu$_{3}$O$_{7}$,0.0,eV/atom,
Ce$_{3}$CuSnSe$_{7}$,0.0,eV/atom,
CsCr$_{3}$O$_{8}$,1.8862,eV/atom,
Nd(C$_{2}$N$_{3}$)$_{3}$,3.5983,eV/atom,[Nd+3].N#C[N-]C#N.N#C[N-]C#N.N#C[N-]C#N
Er$_{2}$Ni$_{2}$Sn,0.0,eV/atom,
Li$_{3}$Bi,0.34289999999999976,eV/atom,
PuGe$_{2}$,0,eV/atom,
KO$_{2}$,0.1116,eV/atom,
Na$_{2}$UF$_{6}$,0.0,eV/atom,
Mn$_{3}$ReO$_{6}$,0.0,eV/atom,
Mn(C$_{2}$N$_{3}$)$_{2}$,1.5869,eV/atom,[Mn+2].N#C[N-]C#N.N#C[N-]C#N
Sr$_{2}$ScIrO$_{6}$,0.0,eV/atom,
Zr$_{2}$(V$_{2}$Sb$_{3}$)$_{3}$,0.0,eV/atom,
RbYMnWO$_{6}$,2.6167999999999996,eV/atom,
NaOsO$_{3}$,0.0,eV/atom,
Cr$_{3}$Os,0.0,eV/atom,
Yb$_{2}$MnSe$_{4}$,0.0,eV/atom,
TlAsS$_{2}$,1.7379000000000002,eV/atom,
K$_{4}$Hf$_{5}$O$_{12}$,3.268,eV/atom,
Lu$_{5}$Ge$_{3}$C,0.0,eV/atom,
SmCu$_{6}$,0.04329999999999945,eV/atom,
Sm$_{2}$(InCo$_{3}$)$_{3}$,0.0,eV/atom,
Cs$_{2}$Li$_{3}$Br$_{5}$,4.3566,eV/atom,
NaHg$_{2}$IO$_{2}$,1.379,eV/atom,
Mn(GaTe$_{2}$)$_{2}$,0.0,eV/atom,
CrCl$_{3}$,1.4075,eV/atom,
NaP,0.8684000000000003,eV/atom,
Re$_{2}$C$_{9}$S$_{3}$O$_{8}$,2.2827,eV/atom,
K$_{3}$ReClF$_{6}$,1.8139999999999998,eV/atom,
Ba$_{2}$Tl$_{2}$CuO$_{6}$,0.0,eV/atom,
CsLi$_{2}$(H$_{2}$N)$_{3}$,0.6856,eV/atom,
CuPt,0.0,eV/atom,
Ce$_{2}$B$_{2}$Ir$_{5}$,0.0,eV/atom,
Bi$_{2}$Se,0.0,eV/atom,
Ce$_{2}$Fe$_{12}$P$_{7}$,0.0,eV/atom,
Sr$_{2}$CoO$_{4}$,0.0,eV/atom,
NiB,0.0,eV/atom,
Sr$_{2}$Co(ClO)$_{2}$,0.19259999999999966,eV/atom,
KTiS$_{2}$,0.0,eV/atom,
NaLi$_{5}$N$_{2}$,0.3542,eV/atom,
Na$_{2}$CdPb,0.0,eV/atom,
CsCdF$_{3}$,3.2880000000000003,eV/atom,
Pr$_{4}$MgRu,0.0,eV/atom,
LiB$_{3}$H$_{18}$N$_{5}$,3.2896,eV/atom,
Sb(MoS)$_{2}$,0.0,eV/atom,
Rb$_{2}$SnTe$_{5}$,0.5848,eV/atom,
Ho$_{2}$InAu$_{2}$,0.0,eV/atom,
ErCrHO$_{5}$,2.4814,eV/atom,
NaNbO$_{3}$,1.8832999999999998,eV/atom,
Ge$_{3}$Mo$_{5}$,0,eV/atom,
CsLa(PO$_{3}$)$_{4}$,5.0452,eV/atom,
Rb$_{3}$Ti$_{3}$(PO$_{4}$)$_{5}$,2.5366,eV/atom,
ErGePd,0.0,eV/atom,
Na$_{2}$ZrGe$_{2}$O$_{7}$,3.6856000000000004,eV/atom,
Os$_{2}$Pt(CO)$_{10}$,2.5877,eV/atom,
BaMgF$_{4}$,6.984299999999999,eV/atom,
K$_{3}$Bi$_{5}$(PO$_{4}$)$_{6}$,4.0534,eV/atom,
TbSbRh,0.0,eV/atom,
HfMnSi,0.0,eV/atom,
LiCoAs,0.0,eV/atom,
BaCuF$_{4}$,0.0,eV/atom,
ZnH$_{8}$(O$_{2}$F)$_{2}$,4.8552,eV/atom,[F-].[F-].[Zn+2].O.O.O.O
SrH$_{12}$(ClO$_{3}$)$_{2}$,5.047499999999999,eV/atom,[Cl-].[Cl-].[Sr+2].O.O.O.O.O.O
Ba$_{4}$NaCu(CO$_{5}$)$_{2}$,1.0292,eV/atom,
B$_{3}$Mo,0.0,eV/atom,
Mg(AlC)$_{2}$,1.7481,eV/atom,
Sm$_{3}$Re$_{2}$O$_{9}$,0.09010000000000051,eV/atom,
Ca$_{2}$GaPt$_{2}$,0.0,eV/atom,
CuSeO$_{4}$,0.0,eV/atom,
Sc$_{3}$IrC$_{4}$,0.0,eV/atom,
CaGePt,0.0,eV/atom,
CaH$_{2}$,3.028,eV/atom,
Mo$_{3}$Se$_{4}$,0.0,eV/atom,
DyCo$_{2}$,0.0,eV/atom,
Th(GeOs)$_{2}$,0.0,eV/atom,
Ca$_{2}$As,0.0,eV/atom,
CsCd(NO$_{2}$)$_{3}$,2.4366,eV/atom,
Zr$_{9}$V$_{4}$S,0.0,eV/atom,
Li$_{3}$Al$_{2}$,0.24270000000000014,eV/atom,
Na$_{3}$Fe$_{5}$O$_{9}$,1.7229999999999999,eV/atom,
Mg(FeGe)$_{6}$,0.0,eV/atom,
Cd(Mo$_{3}$Se$_{4}$)$_{2}$,0.0,eV/atom,
CeTeCl,0.0,eV/atom,
SmPS$_{4}$,2.2148,eV/atom,
CuH$_{6}$CN$_{2}$O$_{3}$,0.5795000000000001,eV/atom,
TaNF$_{6}$,0.0,eV/atom,
K$_{3}$Nb$_{3}$Ge$_{2}$O$_{13}$,2.3239,eV/atom,
KAl$_{2}$P$_{2}$H$_{5}$O$_{11}$,5.087899999999999,eV/atom,
Li$_{2}$MgIn,0.0,eV/atom,
Fe(RhS$_{2}$)$_{2}$,0.0,eV/atom,
U(FeP$_{3}$)$_{4}$,0.0,eV/atom,
FeCN$_{2}$,0.0,eV/atom,
Tc,0.0,eV/atom,
TiNiH,0.0,eV/atom,
SrGaSnH,0.4150999999999998,eV/atom,
Tb$_{5}$Pb$_{3}$,0.0,eV/atom,
K$_{2}$NiP$_{2}$WO$_{10}$,3.4914,eV/atom,
Cs$_{3}$FeBr$_{5}$,0.0,eV/atom,
Ca$_{2}$Nb$_{2}$O$_{7}$,2.9996,eV/atom,
Ni(TePd)$_{2}$,0.0,eV/atom,
CsCSN,4.480099999999999,eV/atom,
K$_{2}$CuH$_{4}$(Cl$_{2}$O)$_{2}$,0.5887,eV/atom,
Mn$_{6}$AgP$_{7}$O$_{24}$,2.4581,eV/atom,
Ta$_{2}$H$_{15}$N$_{6}$Cl$_{7}$,2.1923,eV/atom,
Ge$_{3}$Os$_{2}$,0.8459000000000003,eV/atom,
KPb$_{2}$Br$_{5}$,3.0729,eV/atom,
BaAl$_{9}$Ni$_{2}$,0.0,eV/atom,
PI$_{3}$,2.2746,eV/atom,IP(I)I
DyAlCu,0.0,eV/atom,
Ba$_{3}$WN$_{4}$,1.9649999999999999,eV/atom,
TiAg,0.0,eV/atom,
ZrFe$_{12}$Si$_{2}$B,0.0,eV/atom,
RbLiCrO$_{4}$,2.976,eV/atom,
ZnGaNO,0.0,eV/atom,
UAg$_{2}$(WO$_{5}$)$_{2}$,0.9689000000000001,eV/atom,
Sr$_{3}$MgRhO$_{6}$,0.0,eV/atom,
MnP$_{4}$O$_{11}$,4.2326,eV/atom,
BNF$_{8}$,2.9979,eV/atom,F[B-](F)(F)F.F[N+](F)(F)F
SnH$_{24}$C$_{6}$N$_{2}$(OF$_{3}$)$_{2}$,4.7044,eV/atom,
LiAlB$_{14}$,1.2527,eV/atom,
V$_{3}$Si,0.0,eV/atom,
Er$_{3}$Pd$_{4}$,0.0,eV/atom,
KY(H$_{2}$N)$_{4}$,2.6892,eV/atom,
Ba$_{11}$Sb$_{10}$,0.0,eV/atom,
SrGe$_{3}$,0.0,eV/atom,
CuP$_{4}$I,0.8799999999999999,eV/atom,
TlIn$_{5}$Se$_{7}$,0.34140000000000015,eV/atom,
NbNOF$_{4}$,0.0,eV/atom,
CdI$_{2}$,2.4398,eV/atom,
SrO$_{2}$,2.8495000000000004,eV/atom,
Si$_{2}$H$_{6}$S,4.4871,eV/atom,
CsSmS$_{2}$,2.1397,eV/atom,
Al$_{4}$P$_{3}$(HO$_{5}$)$_{3}$,5.5706,eV/atom,
Ca$_{3}$(Bi$_{2}$Pd)$_{4}$,0.0,eV/atom,
NaB$_{3}$O$_{5}$,5.2573,eV/atom,
Ca$_{5}$Sb$_{3}$,0.24120000000000008,eV/atom,
Mg$_{3}$B$_{7}$ClO$_{13}$,5.9272,eV/atom,
NaNd(PO$_{3}$)$_{4}$,5.603,eV/atom,
ThO$_{2}$,4.4187,eV/atom,
SmRe$_{2}$,0.0,eV/atom,
GaSe$_{2}$,0.0,eV/atom,
HoAsPd,0.0,eV/atom,
CrNiO$_{4}$,1.924,eV/atom,
Mg$_{2}$Si,0.0,eV/atom,
TaC,0.0,eV/atom,
NdTiGe,0.0,eV/atom,
Sr$_{2}$FeO$_{3}$F,1.2045000000000003,eV/atom,
U$_{2}$Al$_{3}$C$_{4}$,0,eV/atom,
Li$_{3}$In(BO$_{3}$)$_{2}$,3.4307999999999996,eV/atom,
LiHCO$_{2}$,5.0243,eV/atom,
In$_{2}$Si(AgS$_{3}$)$_{2}$,0.9846999999999997,eV/atom,
Na$_{5}$CoO$_{4}$,1.4522000000000002,eV/atom,
AgMoH$_{4}$S$_{4}$N,1.3130000000000002,eV/atom,
La(SiPd)$_{2}$,0.0,eV/atom,
HoMnGa,0.0,eV/atom,
MgSiN$_{2}$,3.4715,eV/atom,
K$_{3}$Nb$_{2}$CuSe$_{12}$,1.2552999999999999,eV/atom,
GdMnGe,0.0,eV/atom,
Sm$_{3}$CuGeSe$_{7}$,1.1611999999999996,eV/atom,
Li$_{2}$SbAu,0.0,eV/atom,
SrIn$_{2}$,0.0,eV/atom,
In(FeO$_{2}$)$_{2}$,0.0,eV/atom,
TbAlO$_{3}$,5.598200000000001,eV/atom,
RbInSe$_{2}$,1.4736999999999998,eV/atom,
NdBPd$_{3}$,0.0,eV/atom,
Tm$_{2}$Au,0.0,eV/atom,
KH$_{4}$F$_{5}$,7.439,eV/atom,
NaAlH$_{4}$,4.6648,eV/atom,
Li$_{2}$SiN$_{2}$,3.8508,eV/atom,
Zn$_{3}$(AsO$_{4}$)$_{2}$,2.1388000000000003,eV/atom,
Tb$_{3}$TlC,0.0,eV/atom,
Li$_{3}$B$_{11}$O$_{18}$,5.5447,eV/atom,
TiF$_{4}$,4.166,eV/atom,
Mn$_{2}$PO$_{4}$F,2.7959,eV/atom,
NaMnO$_{2}$,1.2494,eV/atom,
EuS,0.0,eV/atom,
PuS$_{2}$,0.0,eV/atom,
SrV$_{4}$O$_{10}$,1.6631,eV/atom,
NdGa$_{3}$,0.0,eV/atom,
Ba$_{3}$CaIr$_{2}$O$_{9}$,0.0,eV/atom,
CrBi$_{8}$O$_{15}$,1.9015000000000004,eV/atom,
La$_{5}$Sb$_{4}$(O$_{4}$F)$_{3}$,3.3074,eV/atom,
YNi$_{3}$,0.0,eV/atom,
NaTiF$_{4}$,0.20199999999999996,eV/atom,
OsN,0.0,eV/atom,
Ce(BC)$_{2}$,0.0,eV/atom,
La(Ni$_{2}$B)$_{6}$,0,eV/atom,
KSe$_{3}$,0.38549999999999995,eV/atom,
USb,0,eV/atom,
Fe$_{3}$(SiO$_{4}$)$_{2}$,1.7005000000000003,eV/atom,
Hf$_{5}$Ge$_{3}$,0.0,eV/atom,
Lu$_{2}$Au,0.0,eV/atom,
SnBi,0.0,eV/atom,
BaHoFe$_{4}$O$_{7}$,0.0,eV/atom,
C$_{3}$N$_{4}$,2.8993,eV/atom,
K$_{3}$V$_{3}$(BiO$_{6}$)$_{2}$,2.9294000000000002,eV/atom,
HoPd,0.0,eV/atom,
Tb$_{2}$AlGe$_{3}$,0.0,eV/atom,
YH$_{3}$,0.0,eV/atom,
Y(MnGe)$_{2}$,0.0,eV/atom,
BaNb$_{7}$(P$_{2}$O$_{11}$)$_{3}$,0.0,eV/atom,
NdNiSn,0.0,eV/atom,
Rb$_{2}$MnCl$_{4}$,1.2907,eV/atom,
SbSO$_{2}$F$_{5}$,3.4443,eV/atom,
GaC$_{3}$,0.0,eV/atom,O=C([O-])C1(F)C=C(O)C(F)(O)C(F)(OF)C1(F)F.NC(N)=[NH2+]
PtN$_{2}$,1.5735999999999999,eV/atom,
InFeCo$_{2}$,0.0,eV/atom,
SrCu$_{2}$O$_{3}$,0.0,eV/atom,
BaAl$_{3}$P$_{2}$(HO$_{7}$)$_{2}$,0.0,eV/atom,
Na$_{2}$B$_{4}$H$_{20}$O$_{17}$,5.0996,eV/atom,
PrTe,0.0,eV/atom,
ZnH$_{16}$C$_{4}$(Br$_{2}$N)$_{2}$,4.0687,eV/atom,
TmSbPt,0.36900000000000066,eV/atom,
UCoGe,0.0,eV/atom,
TbPd$_{3}$,0.0,eV/atom,
LiFe$_{6}$Ge$_{5}$,0.0,eV/atom,
Sr$_{2}$NiMoO$_{6}$,2.3104,eV/atom,
MgCo,0.0,eV/atom,
Gd(CuO$_{2}$)$_{2}$,0.00820000000000043,eV/atom,
Ba$_{2}$Si$_{3}$O$_{8}$,4.5119,eV/atom,
LiCeSn,0.0,eV/atom,
Cs$_{2}$Na$_{4}$Cu$_{2}$Si$_{12}$H$_{4}$O$_{31}$,1.0408,eV/atom,
Tm$_{2}$Fe$_{14}$C,0.0,eV/atom,
CdRe$_{2}$H$_{8}$C$_{2}$(N$_{2}$O$_{5}$)$_{2}$,2.7675,eV/atom,
Ho$_{3}$Ga$_{5}$O$_{12}$,3.3260999999999994,eV/atom,[Ga+3].[Ga+3].[Ho+3].[Ho+3].[Ho+3].O=C([O-])C1=CC(O)=C(O)C(O)=C1.O=C([O-])C1=CC(O)=C(O)C(O)=C1.O=C([O-])C1=CC(O)=C(O)C(O)=C1
NaFe(SO$_{4}$)$_{2}$,2.0612,eV/atom,
La$_{21}$Fe$_{8}$Sb$_{7}$C$_{12}$,0.0,eV/atom,
ZnSiP$_{2}$,1.3636999999999997,eV/atom,
ThB$_{2}$Pt$_{2}$C,0.0,eV/atom,
Na$_{2}$ZnSiO$_{4}$,3.3033,eV/atom,
GdGaO$_{3}$,3.3962000000000003,eV/atom,
KFe$_{2}$(MoO$_{5}$)$_{2}$,0.0,eV/atom,
Na$_{4}$B$_{2}$O$_{5}$,3.6854,eV/atom,
ThTaN$_{3}$,0.07850000000000001,eV/atom,
MgH$_{8}$(ClO$_{6}$)$_{2}$,5.1722,eV/atom,
La$_{8}$Ru$_{4}$O$_{21}$,0.0,eV/atom,
UGaRh,0.0,eV/atom,
ScNi$_{2}$Sn,0.0,eV/atom,
PtC,0.0,eV/atom,
NaVO$_{2}$,1.7715000000000005,eV/atom,
Ba$_{11}$(OsO$_{6}$)$_{4}$,0.0,eV/atom,
Ba$_{3}$(LiBi)$_{4}$,0.0,eV/atom,
CeAsS,0.0,eV/atom,
USnAu$_{2}$,0.0,eV/atom,
RbHoS$_{2}$,2.3355000000000006,eV/atom,
Ca$_{5}$Ge$_{3}$O$_{11}$,3.3456,eV/atom,
U$_{2}$Ti$_{3}$Si$_{4}$,0.0,eV/atom,
SmNiGe$_{3}$,0.0,eV/atom,
KNpN$_{3}$O$_{11}$,0.10220000000000007,eV/atom,
IrF$_{4}$,0.0,eV/atom,
BaCa$_{4}$(CuN$_{2}$)$_{2}$,0.23970000000000002,eV/atom,
Ca$_{10}$P$_{6}$SeO$_{24}$,3.7474999999999996,eV/atom,
Na$_{2}$YbCdSb$_{2}$,0.32410000000000005,eV/atom,
HoCdCu$_{4}$,0.0,eV/atom,
Rb$_{4}$CO$_{4}$,1.6732999999999998,eV/atom,
Nb$_{2}$Co$_{3}$Si,0.0,eV/atom,
CaB$_{4}$O$_{7}$,6.3172000000000015,eV/atom,
Mg$_{2}$GeB$_{2}$Ir$_{5}$,0.0,eV/atom,
NdRu$_{3}$,0.0,eV/atom,
CeGePt,0.0,eV/atom,
EuPH$_{5}$CO$_{7}$,0.0,eV/atom,
Sb$_{6}$H$_{3}$CCl$_{13}$O$_{10}$,1.5069,eV/atom,
TbScSb,0.0,eV/atom,
Fe(PdSe)$_{2}$,0.0,eV/atom,
Lu$_{3}$O$_{2}$F$_{5}$,5.639399999999999,eV/atom,
YMgAl,0.0,eV/atom,
Sr$_{2}$BrN,1.8455,eV/atom,
Al$_{3}$Au$_{8}$,0.0,eV/atom,
UFe$_{3}$B$_{2}$,0.0,eV/atom,
Tl$_{2}$Te$_{3}$,0.7326999999999995,eV/atom,
SrCr$_{2}$O$_{4}$,2.7927000000000004,eV/atom,
Tb$_{4}$InRh,0.0,eV/atom,
LuNi$_{5}$,0.0018000000000002458,eV/atom,
Si$_{5}$Pt$_{12}$,0,eV/atom,
CdI$_{2}$,2.3318000000000003,eV/atom,
AgCO$_{2}$,2.3379000000000003,eV/atom,
Gd$_{3}$NCl$_{6}$,1.968,eV/atom,
CrSb$_{2}$,0.0,eV/atom,
BaTe,0.7819000000000003,eV/atom,
SiPt$_{3}$,0.0,eV/atom,
Sc$_{3}$(CuSi)$_{4}$,0.0,eV/atom,
GdMn$_{2}$O$_{5}$,1.1982999999999997,eV/atom,
SrCo$_{2}$Te$_{3}$(ClO$_{4}$)$_{2}$,2.6334000000000004,eV/atom,
NaAsF$_{6}$,5.114,eV/atom,
Ti$_{2}$Se,0.0,eV/atom,
Ta(MnB$_{2}$)$_{2}$,0.0,eV/atom,
La$_{3}$Si$_{2}$S$_{8}$I,2.516,eV/atom,
KClO$_{4}$,5.539,eV/atom,
Gd$_{3}$S$_{3}$N,1.0476,eV/atom,
RbClO$_{4}$,5.2141,eV/atom,
Rh$_{3}$S$_{4}$,0.0,eV/atom,
K$_{2}$Sn(AuS$_{2}$)$_{2}$,1.6433,eV/atom,
SrH$_{2}$I$_{2}$O,3.6429,eV/atom,
CaB$_{2}$,0.0,eV/atom,
IO$_{2}$,1.4524999999999997,eV/atom,[I+3].O=[I+3]
Zr$_{5}$Al$_{3}$,0.0,eV/atom,
Zr,0.0,eV/atom,
Dy$_{5}$Ru$_{2}$,0.0,eV/atom,
GaPd,0.0,eV/atom,
KCoPH$_{2}$O$_{5}$,2.7927,eV/atom,
SO$_{4}$,0.0,eV/atom,
LiAl,0.0,eV/atom,
CaH$_{2}$I$_{2}$O$_{7}$,3.6191,eV/atom,
TeI$_{4}$,1.769,eV/atom,
K$_{3}$H$_{8}$RhC$_{4}$(ClO$_{6}$)$_{2}$,2.1421,eV/atom,
LiTmSn,0.0,eV/atom,
PrB$_{2}$Pt$_{2}$C,0.0,eV/atom,
InPt$_{3}$,0.0,eV/atom,
HoInNi,0.0,eV/atom,
Mn$_{15}$(Br$_{3}$O$_{10}$)$_{2}$,0.17090000000000005,eV/atom,
Na$_{2}$ZrF$_{6}$,6.251799999999999,eV/atom,
DyInNi,0.0,eV/atom,
BaV$_{3}$O$_{8}$,1.8698000000000001,eV/atom,
Ba$_{6}$Na$_{2}$Mn$_{2}$Ru$_{2}$O$_{17}$,0.3832,eV/atom,
Y$_{3}$ReB$_{7}$,0.0,eV/atom,
K$_{2}$P$_{3}$,0.7095000000000002,eV/atom,
PHN$_{2}$,4.732799999999999,eV/atom,
K$_{2}$U(SO$_{6}$)$_{2}$,0.15589999999999993,eV/atom,
Cs$_{3}$Tb$_{2}$Br$_{9}$,4.0904,eV/atom,
Cs$_{2}$DyCl$_{5}$,5.0074,eV/atom,
Zn$_{3}$P$_{2}$(H$_{2}$O$_{3}$)$_{4}$,3.7117999999999998,eV/atom,
Ti$_{2}$NiSe$_{4}$,0.0,eV/atom,
YNiBi,0.2073999999999998,eV/atom,
Yb$_{4}$Cu$_{2}$Sn$_{5}$,0.0,eV/atom,
La$_{2}$O$_{3}$,3.4110000000000005,eV/atom,
TcXeO$_{4}$F$_{5}$,2.0717,eV/atom,
YbFeGe,0.0,eV/atom,
Li$_{2}$W$_{2}$O$_{7}$,3.996,eV/atom,
Sn$_{4}$Sb$_{6}$S$_{13}$,0.6013999999999999,eV/atom,
LaNiAsO,0.0,eV/atom,
Na$_{3}$Li$_{3}$N$_{2}$,0.0,eV/atom,
TlRe$_{3}$(S$_{2}$Cl)$_{2}$,1.8243,eV/atom,
SiO$_{2}$,5.5103,eV/atom,
Cd(C$_{2}$N$_{3}$)$_{2}$,4.5428,eV/atom,
AgHgAsS$_{3}$,1.1980000000000004,eV/atom,
P,3.5354,eV/atom,
KTeF$_{5}$,5.2046,eV/atom,
In(PO$_{3}$)$_{3}$,4.372199999999999,eV/atom,
Gd$_{2}$Zr$_{2}$O$_{7}$,2.7790000000000004,eV/atom,
BaDy$_{2}$ZnO$_{5}$,3.0569,eV/atom,
YCd,0.0,eV/atom,
AlN,3.306099999999999,eV/atom,
Ho$_{4}$NiB$_{14}$,0.02149999999999963,eV/atom,
MnTl$_{2}$As$_{2}$S$_{5}$,0.6165999999999996,eV/atom,
Al$_{2}$Ru,0.0,eV/atom,
Hf$_{54}$Os$_{17}$,0.0,eV/atom,
La$_{7}$Mo$_{7}$O$_{30}$,1.1666000000000007,eV/atom,
TeO$_{2}$,0.0,eV/atom,
ScPS$_{4}$,1.9419999999999997,eV/atom,
Sc$_{8}$Te$_{3}$,0.0,eV/atom,
CdI$_{2}$,2.3322,eV/atom,
NdReMoO$_{8}$,3.3322,eV/atom,
K$_{2}$U(MoO$_{5}$)$_{2}$,0.0,eV/atom,
Na$_{2}$Hg$_{3}$S$_{4}$,1.3273000000000001,eV/atom,
Ti$_{2}$SnC,0.0,eV/atom,
Sr$_{2}$Fe$_{2}$H$_{2}$OF$_{10}$,3.5417,eV/atom,
TiFeP,0.0,eV/atom,
Fe$_{7}$Se$_{8}$,0.0,eV/atom,
FeSO$_{5}$,0.0,eV/atom,
LaCoO$_{3}$,0.4388000000000005,eV/atom,
MoP$_{2}$NCl$_{12}$,0.0,eV/atom,
TiMn$_{2}$,0.0,eV/atom,
Sr(BiO$_{2}$)$_{2}$,2.5577,eV/atom,
BaTbO$_{3}$,0.0,eV/atom,
Ta$_{2}$O$_{5}$,0.2969000000000004,eV/atom,
Sr$_{4}$TiP$_{4}$,1.432,eV/atom,
Sr$_{2}$Cu(IO)$_{2}$,0.0,eV/atom,
BaHg$_{11}$,0.0,eV/atom,
Na$_{2}$Si(H$_{3}$O$_{2}$)$_{6}$,4.7453,eV/atom,
K$_{2}$YNb$_{5}$O$_{15}$,1.6085,eV/atom,
CaH$_{6}$C$_{2}$O$_{7}$,3.7118,eV/atom,[Ca+2].O=C([O-])C(=O)[O-].O.O.O
Hf$_{6}$Al$_{16}$Rh$_{7}$,0.0,eV/atom,
Na$_{5}$Lu(SiO$_{3}$)$_{4}$,3.6801999999999997,eV/atom,
ZrSiO$_{4}$,4.0306,eV/atom,
AlRh,0.0,eV/atom,
Co$_{2}$As,0.0,eV/atom,
CsBr,4.2433,eV/atom,
ZrHg$_{3}$(SeBr$_{3}$)$_{2}$,1.9367999999999999,eV/atom,
CrAu$_{4}$,0.0,eV/atom,
PuSi,0.0,eV/atom,
Ca$_{3}$V$_{2}$(SiO$_{4}$)$_{3}$,0.0,eV/atom,
RbCeTe$_{2}$,0.1255999999999995,eV/atom,
K$_{2}$Zn(SiO$_{3}$)$_{2}$,3.9191000000000003,eV/atom,
Pr(C$_{2}$N$_{3}$)$_{3}$,3.5795,eV/atom,[Pr+3].N#C[N-]C#N.N#C[N-]C#N.N#C[N-]C#N
Dy$_{5}$Si$_{3}$B,0.0,eV/atom,
HoAlB$_{14}$,0.0,eV/atom,
Pu$_{2}$SO$_{2}$,0.0,eV/atom,
HgMoO$_{4}$,2.2464000000000004,eV/atom,
Rb$_{2}$GeB$_{4}$O$_{9}$,4.0842,eV/atom,
Pr$_{2}$Fe$_{17}$,0.0,eV/atom,
AuCS$_{2}$Cl$_{3}$,1.9556999999999998,eV/atom,
CsCrCl$_{3}$,0.0,eV/atom,
HfGaNi$_{2}$,0.0,eV/atom,
HoZn$_{3}$,0.0,eV/atom,
K$_{3}$BAs$_{2}$,1.3130000000000002,eV/atom,
KCdCu$_{7}$Se$_{2}$Cl$_{9}$O$_{8}$,0.0,eV/atom,
As$_{4}$Pb$_{8}$Cl$_{6}$O$_{11}$,2.1995,eV/atom,
KCuO$_{2}$,0.8604999999999999,eV/atom,
Sb$_{8}$(PbS$_{5}$)$_{3}$,1.597,eV/atom,
PrGe,0.0,eV/atom,
CrF$_{3}$,2.8431,eV/atom,
TmB$_{2}$Ir$_{3}$,0.0,eV/atom,
SrAgSF,1.2491000000000003,eV/atom,
MgSiO$_{3}$,4.558400000000001,eV/atom,
Nd$_{2}$SeO$_{2}$,2.1457,eV/atom,
Ba(RhPb$_{2}$)$_{3}$,0.0,eV/atom,
NiH$_{4}$(IO$_{4}$)$_{2}$,3.0206,eV/atom,[Ni+2].O=I(=O)[O-].O=I(=O)[O-].O.O
NaInP$_{2}$O$_{7}$,3.7446,eV/atom,
H$_{18}$RuC$_{6}$S$_{3}$N$_{3}$ClO$_{3}$,2.5151,eV/atom,
CaB$_{2}$(H$_{7}$N)$_{2}$,5.694699999999999,eV/atom,
UOF$_{4}$,2.5352,eV/atom,
Yb$_{5}$Pt$_{2}$,0.0,eV/atom,
FeP(H$_{2}$O$_{3}$)$_{2}$,2.5976,eV/atom,
TeH$_{14}$C$_{2}$(NO$_{2}$)$_{4}$,2.7712,eV/atom,O=C(N)N.O=C(N)N.O=[Te](=O)(O)O
Ti$_{2}$FeO$_{5}$,1.5668999999999995,eV/atom,
In$_{2}$Ni$_{3}$Se$_{2}$,0.0,eV/atom,
SiO$_{2}$,5.677300000000001,eV/atom,
Al$_{2}$O$_{3}$,4.4553,eV/atom,
Eu$_{2}$In,0.0,eV/atom,
NbSNCl$_{6}$,1.8154,eV/atom,
Er$_{2}$FeC$_{4}$,0.0,eV/atom,
Y$_{2}$H$_{16}$S$_{3}$O$_{20}$,5.3615,eV/atom,
Li$_{3}$AlF$_{6}$,7.688400000000001,eV/atom,
K$_{2}$Se$_{2}$O,0.07850000000000001,eV/atom,
Dy$_{3}$Ga$_{9}$Pt$_{2}$,0.0,eV/atom,
H$_{3}$ClO$_{5}$,3.4848,eV/atom,
K$_{3}$Mn(CN)$_{6}$,0.0,eV/atom,
Cs$_{2}$P$_{2}$H$_{2}$O$_{7}$,5.2232,eV/atom,
CsReF$_{6}$,0,eV/atom,
PH$_{8}$N$_{4}$Cl,5.000299999999999,eV/atom,[Cl-].N[P+](N)(N)N
TbCo$_{5}$,0.0,eV/atom,
Hg(AsO$_{3}$)$_{2}$,0.7083000000000004,eV/atom,
ZrTi$_{2}$,0.0,eV/atom,
TiBr$_{3}$,0.0,eV/atom,
GdAl$_{3}$(BO$_{3}$)$_{4}$,2.8508999999999998,eV/atom,
ZrP$_{2}$S$_{7}$,1.6602999999999999,eV/atom,
ZrNiSb,0.06900000000000084,eV/atom,
GeC,1.6502,eV/atom,
RbH,2.9181,eV/atom,
Ti$_{3}$Co$_{3}$O,0.0,eV/atom,
SiO$_{2}$,5.5233,eV/atom,
Lu(IO$_{3}$)$_{3}$,3.5151,eV/atom,[Lu+3].O=I(=O)[O-].O=I(=O)[O-].O=I(=O)[O-]
Eu$_{5}$(MoO$_{6}$)$_{2}$,0.0,eV/atom,
Mn$_{4}$Si$_{7}$,0.7785999999999991,eV/atom,
LuNi$_{5}$Sn,0.0,eV/atom,
Cr$_{3}$Si,0.0,eV/atom,
Mn$_{3}$Nb$_{2}$ZnO$_{9}$,1.9057999999999997,eV/atom,
TbH$_{3}$(CO$_{2}$)$_{3}$,3.9948,eV/atom,[Tb+3].[H]C(=O)[O-].[H]C(=O)[O-].[H]C(=O)[O-]
YCuP$_{2}$,0.0,eV/atom,
KIO$_{3}$,2.5681999999999996,eV/atom,
LiHS,3.4983999999999997,eV/atom,
CsMgCl$_{3}$,5.126099999999999,eV/atom,
Rb$_{2}$Tb$_{10}$C$_{4}$Br$_{19}$,0.1554000000000002,eV/atom,
CaAgSb,0.0,eV/atom,
K$_{3}$SeO$_{4}$F,3.8658,eV/atom,
SmAl$_{4}$Ni,0.0,eV/atom,
LiEr(PO$_{3}$)$_{4}$,5.9182,eV/atom,
Ba$_{2}$HoCu$_{3}$O$_{7}$,0.0,eV/atom,
Tb$_{4}$InIr,0.0,eV/atom,
Cs(BH)$_{6}$,5.381399999999999,eV/atom,
CdHg$_{2}$SeO$_{6}$,0.9315,eV/atom,
Ba$_{3}$SrNb$_{2}$O$_{9}$,3.4284,eV/atom,
Mn$_{3}$IrN,0.0,eV/atom,
LuAg$_{4}$,0.0,eV/atom,
Cs$_{4}$Re$_{6}$S$_{13}$,1.3348999999999998,eV/atom,
Eu$_{2}$Ge$_{2}$Se$_{5}$,0.0,eV/atom,
NaY(PO$_{3}$)$_{4}$,5.5938,eV/atom,
AlPO$_{4}$,5.6126000000000005,eV/atom,
Ba$_{2}$Na$_{2}$U(S$_{2}$O)$_{2}$,1.3057000000000003,eV/atom,
Tb$_{2}$Ti$_{3}$Ge$_{4}$,0.0,eV/atom,
Tl$_{2}$Ni$_{3}$S$_{2}$,0.0,eV/atom,
Bi$_{2}$O$_{3}$,1.1772,eV/atom,
Ba$_{2}$LaSbO$_{6}$,3.8413000000000004,eV/atom,
LaGe$_{3}$Rh,0.0,eV/atom,
LuZn$_{2}$,0.0,eV/atom,
CoSb$_{2}$,0.0,eV/atom,
SiPb$_{4}$(BrO)$_{4}$,3.1492,eV/atom,
AlP$_{3}$(NCl$_{3}$)$_{3}$,3.6551,eV/atom,
H$_{5}$C$_{2}$ClO,5.4003,eV/atom,ClCOC
CaMg(SiO$_{3}$)$_{2}$,4.9716,eV/atom,
AgCN,3.6446,eV/atom,
Lu$_{2}$Ni$_{12}$P$_{7}$,0.0,eV/atom,
CuP$_{2}$,0.8635000000000002,eV/atom,
Lu$_{2}$Ti$_{2}$O$_{7}$,2.5102,eV/atom,
ErBi$_{2}$BrO$_{4}$,1.3505000000000003,eV/atom,
Ba(ZnSn)$_{2}$,0.0,eV/atom,
Hg(C$_{2}$F$_{3}$)$_{2}$,3.6638,eV/atom,FC(F)=C(F)[Hg]C(F)=C(F)F
GdGaPd$_{2}$,0.0,eV/atom,
K(BH)$_{5}$,4.6289,eV/atom,
PrFeGe$_{2}$O$_{7}$,2.7016,eV/atom,
ScSiIr,0.0,eV/atom,
TiSiPt,0.0,eV/atom,
Cs$_{4}$Sn$_{2}$Te$_{7}$,1.1354000000000002,eV/atom,
TlC,0.0,eV/atom,
LaSCl,2.4524,eV/atom,
BaCu$_{3}$O$_{4}$,0.0,eV/atom,
ZrSi,0.0,eV/atom,
Eu(MgGe)$_{3}$,0.0,eV/atom,
YI$_{3}$,3.0417,eV/atom,
Sm$_{2}$Sb,0.0,eV/atom,
Er$_{2}$Mg,0.0,eV/atom,
BaTbAgTe$_{3}$,0.8391000000000002,eV/atom,
BeRh,0.0,eV/atom,
HfGeS,0.0,eV/atom,
Mo(RhO$_{3}$)$_{2}$,0.0,eV/atom,
Ti$_{4}$Cd(CuO$_{4}$)$_{3}$,0.0,eV/atom,
Li$_{2}$GeF$_{6}$,5.7409,eV/atom,
Er$_{5}$Ge$_{3}$,0.0,eV/atom,
MgH$_{16}$C$_{4}$S$_{4}$N$_{2}$(O$_{4}$F$_{3}$)$_{4}$,0.3598000000000001,eV/atom,
LiBF$_{4}$,8.246,eV/atom,
Ni$_{23}$B$_{6}$,0.0,eV/atom,
GeH$_{3}$Cl,4.7492,eV/atom,
Ho$_{4}$C$_{7}$,0.0,eV/atom,
Eu(GeIr)$_{2}$,0.0,eV/atom,
MnC$_{4}$BrO$_{4}$,2.5559000000000003,eV/atom,
Ba$_{3}$Ca$_{2}$(SiN$_{3}$)$_{2}$,1.5518,eV/atom,
SnH$_{18}$C$_{6}$Br$_{3}$N,3.4837,eV/atom,
Na$_{4}$Ge$_{2}$Se$_{5}$,1.6662,eV/atom,
RbP$_{4}$N$_{7}$,3.6942000000000004,eV/atom,
MnSO$_{3}$,4.0952,eV/atom,
La$_{3}$TlC,0.0,eV/atom,
LiH$_{2}$SO$_{4}$,5.1899,eV/atom,
RbPHO$_{3}$F,5.189,eV/atom,
Sc$_{2}$C,0.0,eV/atom,
SiO$_{2}$,4.035,eV/atom,
Sm(NiBi)$_{2}$,0.0,eV/atom,
CaPbF$_{6}$,3.4558999999999997,eV/atom,
RbGeCl$_{3}$,3.7552000000000003,eV/atom,
InGaS$_{3}$,1.6761,eV/atom,
MnSe,0.0,eV/atom,
LaSc$_{3}$(BO$_{3}$)$_{4}$,4.2334,eV/atom,
Zn$_{2}$AgAu,0.0,eV/atom,
KCeS$_{2}$,0.0,eV/atom,
LuNiGe,0.0,eV/atom,
K$_{2}$IrCBr$_{5}$O,1.815,eV/atom,
Cs$_{2}$KMnF$_{6}$,1.5996,eV/atom,
KO$_{2}$F,0.0,eV/atom,
RbPH$_{3}$O$_{4}$F,5.7119,eV/atom,
UGa$_{5}$Os,0.0,eV/atom,
CuBS$_{2}$,1.7433999999999994,eV/atom,
CaAg$_{2}$,0.0,eV/atom,
SbS$_{3}$N$_{2}$Cl$_{7}$,1.818,eV/atom,
K$_{2}$Pd$_{3}$S$_{4}$,0.4969000000000001,eV/atom,
WS$_{9}$Cl$_{4}$,1.2564,eV/atom,
CsLi$_{2}$I$_{3}$,4.1669,eV/atom,
Y$_{3}$GaCo$_{3}$,0.0,eV/atom,
Ca$_{4}$Te$_{5}$O$_{14}$,2.8571,eV/atom,
MnCoSb,0.0,eV/atom,
LuNi,0.0,eV/atom,
CaSc$_{2}$O$_{4}$,3.4579999999999997,eV/atom,
AgCNO,2.8211,eV/atom,
CaMn$_{2}$Be$_{3}$(SiO$_{4}$)$_{3}$,3.8734,eV/atom,
Nd(BOs)$_{4}$,0.0,eV/atom,
Li$_{2}$CeGe,0.0037000000000002586,eV/atom,
MnNb$_{3}$O$_{6}$,0.0,eV/atom,
B$_{2}$Mo,0.0,eV/atom,
Ce$_{2}$SbS$_{5}$Br,0.0,eV/atom,