formula,Property band_gap,Property band_gap units,Property SMILES
Y$_{5}$Si$_{3}$,0.0,eV/atom,
In$_{4}$Te$_{3}$,0.12239999999999984,eV/atom,
Mg$_{3}$P$_{2}$,1.6067999999999998,eV/atom,
Y$_{2}$AlSi$_{2}$,0.0,eV/atom,
Th(BOs)$_{2}$,0.0,eV/atom,
CsGe,0.9827999999999999,eV/atom,
TiH$_{8}$C$_{4}$NO$_{10}$,0.022900000000000142,eV/atom,
Y$_{2}$Ni$_{7}$,0.0,eV/atom,
GaH$_{20}$C$_{2}$S$_{2}$NO$_{14}$,4.7139999999999995,eV/atom,
Ba$_{2}$LaRuO$_{6}$,0.23419999999999952,eV/atom,
PtPb$_{2}$,0.0,eV/atom,
RbNbSiO$_{5}$,3.2067,eV/atom,
Cu$_{2}$SiS$_{3}$,0.0,eV/atom,
Ti$_{2}$InNi,0.0,eV/atom,
Ba$_{3}$(ZnAs$_{2}$)$_{2}$,0.0134000000000003,eV/atom,
Rb$_{2}$NaMnO$_{4}$,1.8116000000000003,eV/atom,
K$_{2}$ZrCdH$_{16}$(CO$_{3}$)$_{8}$,2.9671000000000003,eV/atom,[K+].[K+].[Zr+4].[Cd+2].O=C([O-])C(=O)[O-].O=C([O-])C(=O)[O-].O=C([O-])C(=O)[O-].O=C([O-])C(=O)[O-].O.O.O.O.O.O.O.O
K$_{23}$Na$_{8}$(CdIn$_{4}$)$_{12}$,0.0,eV/atom,
KUI$_{3}$O$_{11}$,2.2614,eV/atom,
CrCoO$_{4}$,1.4983,eV/atom,
Rb$_{2}$Hg$_{7}$,0.0,eV/atom,
CsCr$_{5}$Te$_{8}$,0.0,eV/atom,
Ce$_{2}$In$_{8}$Pt,0.0,eV/atom,
ErH$_{2}$ClO$_{2}$,4.7283,eV/atom,
LaSi$_{2}$Pt,0.0,eV/atom,
Sm$_{5}$Sb$_{3}$H,0.0,eV/atom,
K$_{14}$(Tl$_{7}$Cd$_{3}$)$_{3}$,0.0,eV/atom,
MgIn$_{2}$,0.0,eV/atom,
SrVClO$_{3}$,2.1835999999999998,eV/atom,
NaErO$_{2}$,4.0684000000000005,eV/atom,
Na$_{3}$(CuS)$_{4}$,0.0,eV/atom,
Cs$_{2}$KMnF$_{6}$,0.0,eV/atom,
Lu$_{2}$V$_{2}$O$_{7}$,0.0,eV/atom,
RbPdF$_{3}$,0.0,eV/atom,
U$_{2}$N$_{3}$,0.0,eV/atom,
Cs$_{2}$SiSe$_{4}$,1.9853,eV/atom,
Ba$_{3}$NaOs$_{2}$O$_{9}$,0.0,eV/atom,
PrB$_{2}$Rh$_{3}$,0.0,eV/atom,
InCo$_{3}$SnS$_{2}$,0.23819999999999997,eV/atom,
DyFe$_{3}$,0.0,eV/atom,
Ba$_{3}$WCl$_{2}$O$_{5}$,3.9374,eV/atom,
In$_{2}$(TeO$_{3}$)$_{3}$,3.0171,eV/atom,
MgTe,2.3611999999999997,eV/atom,
CuCSN,2.3965999999999994,eV/atom,
Ba$_{3}$(SnP$_{2}$)$_{2}$,0.8645999999999998,eV/atom,
PH$_{6}$CNO$_{3}$,5.2433000000000005,eV/atom,
TmPt$_{3}$,0.0,eV/atom,
MnSbSe$_{2}$Br,0.621,eV/atom,
Ho(CuGe)$_{2}$,0.0,eV/atom,
BaSi$_{4}$O$_{9}$,4.3439,eV/atom,
LuSi$_{2}$,0.02259999999999973,eV/atom,
EuPd,0.0,eV/atom,
Ba$_{3}$CaO$_{4}$,2.111,eV/atom,
LaC,0.0,eV/atom,
Y$_{3}$(SiRh)$_{2}$,0.0,eV/atom,
Cu$_{6}$PbSe$_{2}$Cl$_{5}$O$_{8}$,0.0,eV/atom,
Pr(SiAg)$_{2}$,0.0,eV/atom,
Nd$_{2}$AlNi$_{2}$,0.0,eV/atom,
CeZnPt,0.0,eV/atom,
Ca$_{5}$P$_{3}$HO$_{13}$,5.1982,eV/atom,
VP$_{2}$O$_{7}$,2.7488,eV/atom,
K$_{2}$NaZn$_{2}$H$_{5}$(C$_{2}$O$_{7}$)$_{2}$,4.1163,eV/atom,
CsCO$_{2}$,4.1438,eV/atom,
MoF$_{3}$,3.5743,eV/atom,
CuSbS$_{2}$,0.7533000000000003,eV/atom,
YbGaPd,0.0,eV/atom,
Ba$_{2}$Si$_{5}$N$_{8}$,2.8812999999999995,eV/atom,
AlI$_{3}$,3.2580999999999998,eV/atom,
AlH$_{15}$(NF)$_{6}$,5.5093000000000005,eV/atom,
YbCuPbSe$_{3}$,0.0,eV/atom,
Na$_{3}$As$_{7}$,1.4262000000000001,eV/atom,
Sn$_{2}$Ir,0.0,eV/atom,
KLiYF$_{5}$,7.1638,eV/atom,
FeTeBr$_{7}$,1.0596,eV/atom,
Dy(FeSn)$_{6}$,0.0,eV/atom,
V$_{4}$SiSb$_{2}$,0.0,eV/atom,
Ca(MnSb)$_{2}$,0.0,eV/atom,
EuNiGe,0.0,eV/atom,
KCO$_{3}$,0.7881,eV/atom,
Yb$_{2}$Si$_{2}$O$_{7}$,0.0,eV/atom,
K$_{2}$Cd$_{3}$S$_{4}$,1.7875999999999999,eV/atom,
Sc$_{3}$RuC$_{4}$,0.0,eV/atom,
Cu$_{3}$N,0.0,eV/atom,
TlHg(AsS$_{2}$)$_{3}$,1.6747999999999998,eV/atom,
Co$_{2}$NiSe$_{4}$,0.0,eV/atom,
WC$_{4}$(BrO$_{2}$)$_{2}$,2.0297,eV/atom,
BaAs$_{2}$Pt,0.0,eV/atom,
Al$_{6}$C$_{3}$N$_{2}$,0.0,eV/atom,
MnBi$_{4}$S$_{7}$,0.8815999999999997,eV/atom,
H$_{8}$C$_{3}$SeN$_{2}$,3.2151,eV/atom,[Se]=C(N)N(C)C
La(Ni$_{2}$Sn)$_{2}$,0.0,eV/atom,
Al$_{2}$Pd,0.0,eV/atom,
K$_{2}$Th(CuS$_{2}$)$_{2}$,1.1260000000000003,eV/atom,
RbBe$_{4}$(BO$_{3}$)$_{3}$,5.1692,eV/atom,
Yb$_{2}$S$_{3}$,0.0,eV/atom,
UPCl$_{10}$,0.6319999999999999,eV/atom,
MnAlPt,0.0,eV/atom,
KCuPSe$_{3}$,1.0053,eV/atom,
NaFe$_{3}$O$_{5}$,1.5608,eV/atom,
KFe$_{2}$(PO$_{4}$)$_{2}$,1.9463,eV/atom,
KB$_{6}$P(H$_{2}$O$_{7}$)$_{2}$,5.8809000000000005,eV/atom,
FeP$_{4}$O$_{11}$,3.5781,eV/atom,
Ga$_{2}$Fe$_{2}$S$_{5}$,0.0,eV/atom,
FeSO$_{4}$F,2.1287,eV/atom,
K$_{2}$Te$_{2}$Pd,0.8016000000000001,eV/atom,
YGe$_{2}$Ir,0.0,eV/atom,
Na$_{3}$LiP$_{2}$O$_{7}$,4.8511,eV/atom,
BaZr$_{4}$(PO$_{4}$)$_{6}$,4.3446,eV/atom,
Na$_{3}$Li$_{3}$Al$_{2}$F$_{12}$,7.0872,eV/atom,
LiAsH$_{2}$OF$_{6}$,4.1762,eV/atom,
CdH$_{6}$C$_{4}$(S$_{2}$O)$_{2}$,2.3204000000000002,eV/atom,[Cd+2].[Cd+2].[O-]C(=S)[SH-]C.[O-]C(=S)[SH-]C
Ho(NiSb)$_{2}$,0.0,eV/atom,
ZnS,2.0379,eV/atom,
K$_{2}$Zn$_{3}$P$_{4}$(HO$_{3}$)$_{4}$,4.9236,eV/atom,
Pr$_{15}$Si$_{10}$Ni$_{7}$,0.0,eV/atom,
PrNiGe$_{2}$,0.0,eV/atom,
P$_{4}$S$_{9}$,2.7121000000000004,eV/atom,
K$_{3}$Na$_{2}$SnBi$_{3}$,0.0026999999999999247,eV/atom,
NdTa$_{7}$O$_{19}$,3.1661,eV/atom,
NaNbSe$_{2}$,0.5013999999999994,eV/atom,
CsDyS$_{2}$,2.1448,eV/atom,
ZrPb$_{2}$F$_{8}$,5.2222,eV/atom,
Gd$_{3}$(MnC$_{3}$)$_{2}$,0.0,eV/atom,
CeBiS$_{2}$O,0.0,eV/atom,
Er$_{3}$Mn$_{3}$Ga$_{2}$Si,0.0,eV/atom,
Al$_{2}$Si$_{2}$H$_{4}$O$_{9}$,4.4776,eV/atom,
K$_{6}$Cd$_{4}$Sn$_{3}$Se$_{13}$,1.4058,eV/atom,
Hf$_{6}$Ni$_{16}$Ge$_{7}$,0.0,eV/atom,
Dy$_{5}$C$_{2}$Br$_{9}$,0.7994000000000001,eV/atom,
Li$_{2}$(LuGe)$_{3}$,0.0,eV/atom,
K$_{3}$(Mg$_{10}$In$_{7}$)$_{2}$,0.0,eV/atom,
SeBr,1.5061,eV/atom,
Sr$_{2}$YOsO$_{6}$,0.18989999999999974,eV/atom,
Gd$_{2}$Ga$_{8}$Co,0.0,eV/atom,
Fe(MoS$_{2}$)$_{2}$,0.002100000000000435,eV/atom,
Dy$_{2}$Sn$_{5}$,0.0,eV/atom,
NdSb,0.0,eV/atom,
Na$_{10}$SrSn$_{12}$,0.6713,eV/atom,
ErPt$_{3}$,0.0,eV/atom,
NiMoP$_{8}$,0.0,eV/atom,
Cs$_{3}$ZnCl$_{5}$,4.2793,eV/atom,
Ce$_{2}$H$_{5}$,0.0,eV/atom,
HfTaNO$_{3}$,2.8522,eV/atom,
La$_{2}$Br$_{5}$,0.29660000000000064,eV/atom,
VPO$_{5}$,1.8954,eV/atom,
Yb$_{3}$Cu$_{6}$Sn$_{5}$,0.0,eV/atom,
La$_{3}$Ge$_{3}$Br$_{2}$,0.0,eV/atom,
Co$_{7}$P$_{6}$(HO$_{6}$)$_{4}$,2.5609,eV/atom,
NbFeTe$_{2}$,0.0,eV/atom,
LaCrHO$_{5}$,2.5218000000000003,eV/atom,
Sr$_{5}$V$_{3}$O$_{12}$F,3.9987000000000004,eV/atom,
MgN$_{8}$,0.7761,eV/atom,
ScB$_{4}$Ir$_{3}$,0.0,eV/atom,
NbSiRh,0.0,eV/atom,
Pr(BO$_{2}$)$_{3}$,5.3949,eV/atom,
Na$_{3}$Li$_{3}$Fe$_{2}$F$_{12}$,4.0681,eV/atom,
AgTe$_{4}$Au,0.0,eV/atom,
Li$_{4}$Ga$_{3}$Si$_{3}$BrO$_{12}$,3.9512,eV/atom,
LiMgN,2.2064999999999997,eV/atom,
KCr$_{3}$H$_{6}$(SO$_{7}$)$_{2}$,2.5237,eV/atom,
Na$_{3}$AsH$_{14}$SO$_{10}$,3.2540999999999998,eV/atom,
USiRh,0.0,eV/atom,
EuVO$_{4}$,0.0,eV/atom,
GaCl$_{3}$,4.1628,eV/atom,
Lu(SiOs)$_{2}$,0.0,eV/atom,
TbAl,0.0,eV/atom,
UB$_{4}$Os,0.0,eV/atom,
Tm$_{2}$Co$_{12}$P$_{7}$,0.0,eV/atom,
Sr$_{2}$TbRuO$_{6}$,0.18510000000000026,eV/atom,
BAs,1.2036999999999995,eV/atom,
FeS$_{2}$,0.8770000000000007,eV/atom,
Y$_{2}$TiO$_{5}$,3.2733,eV/atom,
Al$_{2}$(SO$_{4}$)$_{3}$,6.0272,eV/atom,
Na$_{2}$Cl,0.0,eV/atom,
Na$_{2}$Si$_{2}$O$_{5}$,3.8875999999999995,eV/atom,
Ba$_{5}$Ru$_{2}$Br$_{2}$O$_{9}$,0.4718,eV/atom,
PrNbO$_{4}$,3.7546999999999997,eV/atom,
KCu(CN)$_{2}$,2.6066,eV/atom,
Ba$_{3}$NbGa$_{3}$(SiO$_{7}$)$_{2}$,3.2958,eV/atom,
TbZn$_{2}$,0.0,eV/atom,
Th(TeI)$_{2}$,1.0259,eV/atom,
DyCuSn,0.0,eV/atom,
ErBi,0.0,eV/atom,
Bi$_{4}$Au$_{2}$O$_{9}$,0.8623000000000003,eV/atom,
Sr(AlCl$_{4}$)$_{2}$,5.2875,eV/atom,
TcCl$_{3}$,0.18800000000000017,eV/atom,
K$_{3}$TmV$_{2}$O$_{8}$,3.4293,eV/atom,
Ga$_{2}$Mo(SeO$_{5}$)$_{2}$,3.6064999999999996,eV/atom,
Ho$_{2}$In$_{8}$Co,0.0,eV/atom,
GaP$_{2}$I$_{9}$,1.7111999999999998,eV/atom,
Ca$_{3}$BCNCl$_{2}$,2.1064000000000003,eV/atom,
BaCu$_{2}$Te$_{2}$(ClO$_{3}$)$_{2}$,0.0,eV/atom,
P$_{6}$N$_{7}$Cl$_{9}$,3.8764,eV/atom,
TbBi$_{2}$ClO$_{4}$,1.3439000000000005,eV/atom,
CaSnO$_{3}$,0.0,eV/atom,
Cs$_{2}$Lu$_{7}$CCl$_{18}$,0.0,eV/atom,
Rb$_{3}$Mo$_{15}$Se$_{17}$,0.0,eV/atom,
SmAsRuO,0.0,eV/atom,
ErSi,0.0,eV/atom,
TbTe$_{2}$,0.0,eV/atom,
Ho$_{2}$(Ni$_{5}$B$_{2}$)$_{3}$,0.0,eV/atom,
Sm$_{2}$US$_{5}$,0.0,eV/atom,
H$_{10}$S(NO$_{2}$)$_{2}$,4.8521,eV/atom,
Sm$_{2}$As$_{4}$O$_{9}$,3.3593,eV/atom,
CsHgCl$_{3}$,0.0,eV/atom,
ErAu$_{4}$,0.0,eV/atom,
KTiH$_{2}$S$_{2}$O$_{9}$,0.22050000000000036,eV/atom,
Cs$_{4}$Ga$_{2}$Se$_{5}$,2.1170999999999998,eV/atom,
EuFeO$_{3}$,0.0,eV/atom,
PuSbTe,0.0,eV/atom,
PuB$_{6}$,0.0,eV/atom,
AlPO$_{4}$,5.662,eV/atom,
CaTeO$_{4}$,2.2537,eV/atom,
NiH$_{10}$C$_{4}$(SN$_{4}$)$_{2}$,1.9155,eV/atom,
Er(CoGe)$_{6}$,0.0,eV/atom,
CaZnSe$_{2}$,1.5191,eV/atom,
Nd(BIr)$_{2}$,0.0,eV/atom,
EuAgBi,0.0,eV/atom,
MoPO$_{5}$,1.3157,eV/atom,
HfAlCu$_{2}$,0.0,eV/atom,
Ca$_{2}$Al$_{2}$O$_{5}$,3.5637999999999996,eV/atom,
TiP,0.0,eV/atom,
KEu(PO$_{3}$)$_{4}$,0.0,eV/atom,
Rb$_{2}$Cr$_{2}$Cd(H$_{2}$O$_{5}$)$_{2}$,2.7001999999999997,eV/atom,
PbICl,2.7152,eV/atom,
Li$_{4}$Yb$_{5}$Ge$_{4}$,0.0,eV/atom,
ScB$_{2}$Ir$_{3}$,0.0,eV/atom,
Nb$_{7}$P$_{4}$,0.0013999999999994017,eV/atom,
Na$_{4}$Ni$_{7}$(PO$_{4}$)$_{6}$,3.3516999999999997,eV/atom,
LaTlZn,0.0,eV/atom,
CsGd(PO$_{3}$)$_{4}$,3.4182999999999995,eV/atom,
K$_{2}$TiF$_{6}$,4.7349,eV/atom,
La$_{3}$Si$_{2}$S$_{8}$Cl,2.6118000000000006,eV/atom,
NaYTiO$_{4}$,2.3749,eV/atom,
Pr$_{3}$Ir,0.0,eV/atom,
SbTe(SeF$_{3}$)$_{2}$,1.3668,eV/atom,
S(OF)$_{2}$,5.8812,eV/atom,O=S(=O)(F)F
Er$_{3}$FeGe$_{3}$,0.0,eV/atom,
LaV$_{3}$O$_{9}$,2.5700000000000003,eV/atom,
RbUTe$_{3}$Au,0.0,eV/atom,
Rb$_{2}$NaMn$_{3}$F$_{12}$,1.8271,eV/atom,
Cs$_{2}$K$_{2}$TeO$_{5}$,2.0248999999999997,eV/atom,
Ti$_{3}$Zn$_{3}$N,0.0,eV/atom,
CeAl$_{4}$Si$_{2}$Rh,0.0,eV/atom,
CaAlPt,0.0,eV/atom,
Sm$_{3}$AlC,0.0,eV/atom,
K$_{2}$PtS$_{15}$,1.9164999999999999,eV/atom,
NaMn(GeO$_{3}$)$_{2}$,0.857,eV/atom,
Fe$_{2}$P,0.0,eV/atom,
Li$_{2}$SO$_{4}$,5.9904,eV/atom,
Mn$_{3}$Au,0.0,eV/atom,
Ba(Si$_{3}$N$_{4}$)$_{2}$,3.2547999999999995,eV/atom,
SiC,2.2226000000000017,eV/atom,
InTeClO$_{3}$,3.0723,eV/atom,
Mn$_{2}$Hg(CO)$_{10}$,2.811,eV/atom,
TmIn,0.0,eV/atom,
Mg$_{4}$P$_{6}$Rh$_{7}$,0.0,eV/atom,
Na$_{2}$LiAu$_{3}$,0.0,eV/atom,
SmSeClO$_{3}$,4.3959,eV/atom,
K$_{4}$V$_{5}$CuClO$_{15}$,0.16570000000000001,eV/atom,
InAg$_{3}$(PO$_{4}$)$_{2}$,1.2178,eV/atom,
Li$_{2}$Fe$_{2}$(MoO$_{4}$)$_{3}$,2.6563999999999997,eV/atom,
Al$_{2}$P$_{3}$H$_{9}$(CO$_{3}$)$_{3}$,4.7339,eV/atom,
HfPOs,0.0,eV/atom,
MgNi$_{2}$Sn,0.0,eV/atom,
LiMnSb,0.0,eV/atom,
Na,1.2688,eV/atom,[C].[C].[C].[C].[C].[C].[C].[C].[C].[C].[C].[C].[C].[C].[C].[C].[C].[C].[C].[C].[C].[C].[C].[C].[C].[C].[C].[C].[C].[C].[Na]
La$_{2}$Si(IO$_{2}$)$_{2}$,2.9986000000000006,eV/atom,
Ga$_{2}$Fe$_{2}$Bi$_{2}$O$_{9}$,1.8124000000000002,eV/atom,
K$_{2}$Mg$_{5}$Sn$_{3}$,0.06389999999999985,eV/atom,
Ce(NiP)$_{2}$,0.0,eV/atom,
Ag$_{3}$AsS$_{3}$,1.6949999999999994,eV/atom,
Cs$_{2}$SrP$_{2}$O$_{7}$,4.9488,eV/atom,
Nd$_{12}$Co$_{6}$Sn,0.0,eV/atom,
SiAg$_{6}$SO$_{8}$,0.006299999999999972,eV/atom,
Tm$_{2}$V$_{2}$O$_{7}$,1.1145000000000005,eV/atom,
H$_{22}$C$_{10}$O$_{3}$,1.2407000000000001,eV/atom,
CrP$_{4}$,0.0,eV/atom,
K$_{2}$Na$_{4}$Co$_{2}$O$_{5}$,1.2404,eV/atom,
Na$_{2}$ZnH$_{4}$(SeO$_{5}$)$_{2}$,3.0254,eV/atom,
Rb$_{2}$Cd$_{3}$Se$_{4}$,1.4123,eV/atom,
Ba$_{7}$Ca$_{2}$Mn$_{5}$O$_{20}$,0.7955000000000001,eV/atom,
RbLi(H$_{2}$N)$_{2}$,2.3503,eV/atom,
TlF,2.1967999999999996,eV/atom,
Ba$_{2}$Br$_{2}$O,3.3041,eV/atom,
Ge$_{2}$Pt$_{3}$,0.0,eV/atom,
SrTi$_{11}$O$_{20}$,0.012199999999999989,eV/atom,
CsDyCdSe$_{3}$,2.4189999999999996,eV/atom,
DyH$_{4}$I$_{3}$O$_{11}$,3.7184999999999997,eV/atom,
Sc$_{5}$(In$_{2}$Ni)$_{2}$,0.0,eV/atom,
ErAlAu,0.0,eV/atom,
BaVPO$_{6}$,2.4690000000000003,eV/atom,
ErAgSn,0.0,eV/atom,
LaCr$_{4}$(CuO$_{4}$)$_{3}$,0.12910000000000021,eV/atom,
MgH$_{2}$,0.0,eV/atom,
ErSeO$_{3}$F,4.2923,eV/atom,
Pr$_{2}$Si$_{2}$O$_{7}$,4.8385,eV/atom,
NiBi,0.0,eV/atom,
Li$_{2}$WO$_{4}$,3.9680000000000004,eV/atom,
Cs$_{2}$FeO$_{4}$,1.6677,eV/atom,
CoPH$_{3}$O$_{4}$,2.8362,eV/atom,
Th$_{2}$SbN$_{2}$,0.0,eV/atom,
SrMgIn$_{3}$,0.0,eV/atom,
SmTe$_{3}$,0.0,eV/atom,
Cs(SbS$_{2}$)$_{2}$,1.4413,eV/atom,
YNi,0.0,eV/atom,
B$_{2}$Mo$_{3}$,0.0,eV/atom,
Zr(WO$_{4}$)$_{2}$,3.6052,eV/atom,
Tl$_{2}$Mo$_{7}$O$_{22}$,0.0,eV/atom,
SrF$_{3}$,0.6608,eV/atom,
Pt$_{2}$W,0.0,eV/atom,
TbNiGe,0.0,eV/atom,
Zr$_{6}$Co$_{16}$Ge$_{7}$,0.0,eV/atom,
TbO$_{2}$,0.0,eV/atom,
Nd$_{3}$Si$_{2}$S$_{8}$Br,2.7288,eV/atom,
Ce$_{2}$MnN$_{3}$,0.0,eV/atom,
Lu$_{2}$O$_{3}$,4.0206,eV/atom,
SiOs,0.5122,eV/atom,
TaSiIr,0.0,eV/atom,
Ba$_{2}$NaO,0.0,eV/atom,
K$_{2}$TcCl$_{6}$,1.1425999999999998,eV/atom,
AlFeF$_{5}$,4.2584,eV/atom,
NaCdPO$_{4}$,2.9166000000000003,eV/atom,
Th(FeGe)$_{2}$,0.0,eV/atom,
TbSnPd$_{2}$,0.0,eV/atom,
TbAl$_{2}$,0.0,eV/atom,
Mg$_{3}$ReH$_{7}$,2.6637,eV/atom,
BaNa$_{2}$Nd$_{2}$Si$_{4}$CO$_{15}$,4.8248,eV/atom,
K$_{2}$Li$_{3}$GaO$_{4}$,3.4186,eV/atom,[Li+].[Li+].[Li+].[K+].[K+].O=C([O-])C1=CC(O)=C(O)C(O)=C1.O=C([O-])C1=CC(O)=C(O)C(O)=C1.O=C([O-])C1=CC(O)=C(O)C(O)=C1.O=C([O-])C1=CC(O)=C(O)C(O)=C1.O=C([O-])C1=CC(O)=C(O)C(O)=C1
CsPbBr$_{3}$,2.0120999999999998,eV/atom,
CsIO$_{3}$,0.0,eV/atom,
GdNi$_{5}$,0.038399999999999324,eV/atom,
Li$_{2}$CrCl$_{4}$,0.5017999999999998,eV/atom,
Nb$_{2}$TlPS$_{10}$,1.3359,eV/atom,
K$_{5}$SnSb$_{3}$,0.5167000000000002,eV/atom,
Si$_{7}$(Ni$_{2}$Au)$_{2}$,0.0,eV/atom,
Pu$_{5}$Ir$_{4}$,0.0,eV/atom,
Ce(NiSn)$_{2}$,0.0,eV/atom,
RbSi,1.3499999999999999,eV/atom,
BaMn$_{2}$O$_{8}$,1.8622,eV/atom,
LaMgPd,0.0,eV/atom,
La$_{2}$NiRuO$_{6}$,0.0,eV/atom,
LaInPt,0.0,eV/atom,
PrTlPd,0.0,eV/atom,
K$_{3}$TlAu$_{5}$,0.0,eV/atom,
Ge(PbS$_{2}$)$_{2}$,2.0309,eV/atom,
Mg(BrO$_{3}$)$_{2}$,4.1768,eV/atom,[Mg+2].[Br-].[Br-].O.O.O.O.O.O
Si$_{3}$Os$_{2}$,0.8552999999999997,eV/atom,
K$_{4}$Nb$_{6}$O$_{17}$,2.6564,eV/atom,
Rb$_{2}$Be$_{2}$Si$_{2}$O$_{7}$,4.3938,eV/atom,
HfMo$_{2}$Se$_{8}$(Cl$_{7}$O)$_{2}$,1.1752,eV/atom,
Zn$_{4}$P$_{6}$N$_{12}$O,2.9652,eV/atom,
Ta$_{2}$InCuTe$_{4}$,0.0,eV/atom,
SmGaSb$_{2}$,0.0,eV/atom,
Cs$_{2}$KFeF$_{6}$,4.095599999999999,eV/atom,
H$_{10}$C$_{5}$S$_{2}$N$_{2}$(O$_{2}$F$_{3}$)$_{2}$,5.8112,eV/atom,O=S(=O)([N-]S(=O)(=O)C(F)(F)F)C(F)(F)F.C[NH+](C)C
TiBe$_{3}$,0.0,eV/atom,
Rb$_{2}$PdI$_{6}$,0.0,eV/atom,
CuBiPbS$_{3}$,0.6137000000000006,eV/atom,
CoH$_{2}$SO$_{5}$,2.8471,eV/atom,
Sr$_{2}$ZnMoO$_{6}$,2.369,eV/atom,
RbLuO$_{2}$,3.6930999999999994,eV/atom,
HfB,0.0,eV/atom,
V$_{3}$Rh,0.0,eV/atom,
TaSb$_{2}$,0.0,eV/atom,
La(SiOs)$_{2}$,0.0,eV/atom,
Sc$_{6}$FeTe$_{2}$,0.0,eV/atom,
Al$_{5}$C$_{3}$N,1.4427000000000003,eV/atom,
Ta$_{2}$P,0.0,eV/atom,
RbMgAs(H$_{6}$O$_{5}$)$_{2}$,4.2177,eV/atom,
SiO$_{2}$,5.725199999999999,eV/atom,
Lu(Mo$_{3}$S$_{4}$)$_{2}$,0.0,eV/atom,
NaCd$_{4}$As$_{3}$,0.0,eV/atom,
TaNO,0.0,eV/atom,
Ag$_{3}$AsS$_{4}$,0.3498999999999999,eV/atom,
K$_{2}$TiSi$_{3}$(HO$_{5}$)$_{2}$,3.4247,eV/atom,
Fe$_{2}$AgS$_{3}$,0.0,eV/atom,
Sc$_{2}$Te$_{5}$O$_{13}$,2.9509,eV/atom,
CsPbF$_{3}$,3.3389999999999995,eV/atom,
Nb$_{2}$Hg$_{3}$S(O$_{2}$F$_{5}$)$_{2}$,2.3509,eV/atom,
B$_{3}$Ru$_{2}$,0.0,eV/atom,
CuH$_{12}$(C$_{2}$N$_{5}$)$_{2}$,0.12029999999999996,eV/atom,
AlCdCl$_{4}$,2.7699,eV/atom,
U(IO$_{4}$)$_{2}$,2.0423999999999998,eV/atom,
K$_{4}$CaU$_{3}$O$_{12}$,2.1025,eV/atom,
PrGa,0.0,eV/atom,
Rb$_{2}$UBr$_{6}$,0.0,eV/atom,
LiTaO$_{3}$,3.7003,eV/atom,
NaB$_{9}$Se$_{8}$,1.9422000000000001,eV/atom,
NaZnPO$_{4}$,3.8292,eV/atom,
OsC$_{3}$I$_{2}$O$_{3}$,1.7713,eV/atom,
SnPCl$_{9}$,2.4074999999999998,eV/atom,
Ba$_{2}$CuGe$_{2}$O$_{7}$,0.1876,eV/atom,
Th,0.0,eV/atom,
Lu$_{2}$(CN$_{2}$)$_{3}$,3.7118999999999995,eV/atom,
KNd(CO$_{3}$)$_{2}$,4.3598,eV/atom,
TcH$_{4}$NO$_{4}$,3.2941,eV/atom,
Pu$_{3}$Pd$_{5}$,0.0,eV/atom,
Nd$_{2}$Ru$_{2}$O$_{7}$,0.0,eV/atom,
RbAl(SO$_{10}$)$_{2}$,0.5966,eV/atom,
Rb$_{5}$CeNi$_{2}$(NO$_{2}$)$_{12}$,0.010099999999999998,eV/atom,
Rb$_{4}$CO$_{4}$,3.1319999999999997,eV/atom,
CaPPt,0.0,eV/atom,
Sr$_{2}$TlCuO$_{5}$,0.0,eV/atom,
Cu$_{7}$As$_{6}$(PbO$_{12}$)$_{2}$,0.21329999999999982,eV/atom,
Cs$_{2}$GeCl$_{6}$,2.215,eV/atom,
Cu$_{3}$AsS$_{3}$,0.0,eV/atom,
Rb$_{2}$LiAsO$_{4}$,3.5526,eV/atom,
BaFeF$_{5}$,3.3512,eV/atom,
SbSNF$_{5}$,2.2126,eV/atom,
Pr$_{2}$Zr$_{2}$O$_{7}$,3.4620999999999995,eV/atom,
NdCo(BO$_{2}$)$_{5}$,3.1128,eV/atom,
Lu$_{5}$Ir$_{2}$,0.0,eV/atom,
Ba$_{3}$WO$_{6}$,2.9798,eV/atom,
RbVPO$_{5}$,2.9656,eV/atom,
Na$_{2}$TbO$_{3}$,0.0,eV/atom,
Sc$_{15}$C$_{19}$,0.0,eV/atom,
VAs$_{2}$H$_{4}$O$_{9}$,2.1392,eV/atom,
Rb$_{2}$Ga$_{2}$B$_{2}$O$_{7}$,3.6744999999999997,eV/atom,
PbS$_{2}$O$_{3}$,3.5394,eV/atom,
Sr$_{4}$S$_{3}$O,2.1146000000000003,eV/atom,
Nd$_{3}$CuGeSe$_{7}$,1.1928999999999998,eV/atom,
Pr$_{2}$Zn$_{17}$,0.0,eV/atom,
La$_{2}$Ni$_{3}$,0.0,eV/atom,
Ca$_{3}$Mg(SiO$_{4}$)$_{2}$,4.8796,eV/atom,
Eu$_{2}$B$_{5}$Os$_{3}$,0.0,eV/atom,
K$_{3}$La(PS$_{4}$)$_{2}$,2.4497999999999998,eV/atom,
PrBRh$_{3}$,0.0,eV/atom,
ZrCo$_{3}$B$_{2}$,0.0,eV/atom,
ZnS,2.0186,eV/atom,
InPPt$_{5}$,0.0,eV/atom,
CaLaMn$_{2}$O$_{6}$,0.0,eV/atom,
KCSeN,3.6215,eV/atom,
SrLi(BS$_{2}$)$_{3}$,2.91,eV/atom,
BP$_{4}$(SBr)$_{3}$,2.6310000000000002,eV/atom,
Sc$_{9}$Ni$_{5}$Ge$_{8}$,0.0,eV/atom,
TlGaSe$_{2}$,1.3725,eV/atom,
YH$_{2}$C$_{4}$O$_{9}$,0.0,eV/atom,
Mg$_{3}$P$_{4}$H$_{28}$(NO$_{12}$)$_{2}$,5.2443,eV/atom,
Tl$_{2}$MoO$_{4}$,3.2763999999999998,eV/atom,
TeCF$_{3}$,2.5038,eV/atom,
Zn$_{13}$Sb$_{10}$,0.4778000000000002,eV/atom,
KLiZnP$_{2}$O$_{7}$,4.2904,eV/atom,
KNd(WO$_{4}$)$_{2}$,3.8022,eV/atom,
Cr$_{2}$(SO$_{4}$)$_{3}$,2.6831,eV/atom,
SrZrS$_{3}$,0.552,eV/atom,
ZrSb$_{2}$,0.0,eV/atom,
NbBi(TeO$_{4}$)$_{2}$,2.5161000000000002,eV/atom,
CeP$_{5}$O$_{14}$,0.10029999999999983,eV/atom,
LaNi$_{5}$H$_{7}$,0.0,eV/atom,
NaSb$_{5}$O$_{8}$,2.6771,eV/atom,
KTeAu,0.0,eV/atom,
Ta$_{2}$FeB$_{2}$,0.0,eV/atom,
Ti$_{4}$Mn(PO$_{4}$)$_{6}$,2.4649,eV/atom,
Ce$_{2}$Bi$_{5}$Rh$_{3}$,0.0,eV/atom,
RbTaGeS$_{5}$,0.9222999999999997,eV/atom,
CdRhF$_{6}$,0.0,eV/atom,
NaNdTiO$_{4}$,2.4465000000000003,eV/atom,
Tl$_{7}$Bi$_{3}$I$_{16}$,2.2653999999999996,eV/atom,
Ag$_{2}$HgSI$_{2}$,1.2212000000000003,eV/atom,
AgC$_{4}$OF$_{9}$,2.3671,eV/atom,
Ba$_{3}$Cr$_{2}$O$_{8}$,0.0,eV/atom,
B,0.05799999999999983,eV/atom,
K$_{2}$TeBr$_{6}$,2.1407,eV/atom,
Cs$_{3}$Sb$_{2}$Br$_{9}$,1.9837,eV/atom,
Ce$_{10}$Te$_{19}$,0.0,eV/atom,
Ba(HO)$_{2}$,3.2575,eV/atom,
H$_{2}$O,5.4788,eV/atom,
Cr$_{2}$PIO$_{4}$,1.6416,eV/atom,
GaAgTe$_{2}$,0.19269999999999987,eV/atom,
Nd$_{3}$Co$_{13}$B$_{2}$,0.0,eV/atom,
Ba$_{2}$Na(CuO$_{2}$)$_{3}$,0.0,eV/atom,
Y$_{3}$Ni$_{4}$B$_{4}$C$_{3}$,0.0,eV/atom,
Na$_{2}$CrNiF$_{7}$,3.8792,eV/atom,
TlSbSe$_{2}$,0.6743000000000001,eV/atom,
H$_{2}$O$_{2}$,4.1497,eV/atom,OO
NaGdSiO$_{4}$,3.2325,eV/atom,
Ti$_{3}$GeC$_{2}$,0.0,eV/atom,
BaCO$_{3}$,3.9622,eV/atom,
CdI$_{2}$,2.3821,eV/atom,
Cs$_{2}$CrF$_{6}$,0.0,eV/atom,
DyFe$_{2}$SiC,0.0,eV/atom,
CeAlIr,0.0,eV/atom,
H$_{4}$CN$_{5}$Cl,3.3781,eV/atom,[Cl-].[N-]=[N+]=NC(N)=[NH2+]
Nb$_{2}$PbO$_{6}$,2.5364999999999998,eV/atom,
Rb$_{5}$Li$_{6}$(BO$_{2}$)$_{11}$,4.3579,eV/atom,
Dy$_{2}$AlGe$_{2}$,0.0,eV/atom,
NaI,3.5255,eV/atom,
Sm(BO$_{2}$)$_{3}$,5.469099999999999,eV/atom,
CaH$_{2}$(CO$_{2}$)$_{2}$,4.6823,eV/atom,
CsH$_{2}$CO$_{3}$,3.4219999999999997,eV/atom,
NaMnP,0.0,eV/atom,
LiCuO$_{2}$,0.37780000000000014,eV/atom,
Cd(NO$_{3}$)$_{2}$,3.4581,eV/atom,
LuSiAu,0.0,eV/atom,
PrAl$_{2}$Ni$_{3}$,0.0,eV/atom,
Sc$_{5}$Ga$_{3}$,0.0,eV/atom,
Bi$_{2}$Te$_{4}$Cl$_{7}$,1.333,eV/atom,
SmSbMo$_{2}$O$_{9}$,3.2360000000000007,eV/atom,
Ag$_{5}$GeO$_{4}$,0.6784999999999999,eV/atom,
CrC,0.0,eV/atom,
NaPr(Si$_{3}$O$_{7}$)$_{2}$,4.789,eV/atom,
Zn(PO$_{3}$)$_{2}$,4.6635,eV/atom,
Nd$_{2}$BiN,0.0,eV/atom,
Rb$_{2}$PbO$_{3}$,1.236,eV/atom,
K$_{2}$ReBr$_{6}$,0.9700000000000001,eV/atom,
TbCoSi,0.0,eV/atom,
Ca$_{2}$B$_{8}$H$_{2}$O$_{15}$,5.576099999999999,eV/atom,
Cu(AsO$_{2}$)$_{2}$,0.4283999999999999,eV/atom,
Li$_{2}$InPt,0.0,eV/atom,
K$_{2}$FeH$_{12}$(SO$_{7}$)$_{2}$,3.6353999999999997,eV/atom,
Hf$_{3}$N$_{4}$,1.0251000000000001,eV/atom,
K$_{3}$GdF$_{6}$,4.5665000000000004,eV/atom,
H$_{12}$C$_{4}$N$_{2}$O$_{9}$,3.2245,eV/atom,O=C([O-])C(=O)O.O=C([O-])C(=O)O.O.[NH4+].[NH4+]
KPPdS$_{4}$,1.477,eV/atom,
SmBPd$_{3}$,0.0,eV/atom,
H$_{2}$CN$_{2}$,4.709899999999999,eV/atom,N#C[N-]C#N.[NH4+]
Na$_{3}$SbO$_{4}$,2.1241,eV/atom,
CoAg$_{3}$(CN)$_{6}$,3.4249,eV/atom,
SrPIr,0.0,eV/atom,
LuHg,0.06780000000000008,eV/atom,
Na$_{2}$PdC$_{2}$,0.8829,eV/atom,
V$_{2}$PbO$_{6}$,2.2575000000000003,eV/atom,
LaGe$_{3}$Ru,0.0,eV/atom,
Cs$_{2}$TiS$_{3}$,1.2717,eV/atom,
K$_{2}$PbO$_{3}$,1.2287000000000003,eV/atom,
SmTlTe$_{2}$,1.5221999999999998,eV/atom,
Pr$_{2}$SnS$_{5}$,0.0,eV/atom,
Li$_{21}$Si$_{5}$,0.0,eV/atom,
TmAsSe,0.26170000000000027,eV/atom,
TlSbF$_{4}$,3.8659000000000003,eV/atom,
Mn$_{7}$(PbO$_{5}$)$_{3}$,0.0,eV/atom,
Fe$_{2}$PO$_{5}$,0.0,eV/atom,
Ca$_{2}$MnAs$_{2}$(H$_{2}$O$_{5}$)$_{2}$,2.4949999999999997,eV/atom,
Li$_{3}$CeSb$_{2}$,0.0,eV/atom,
Mg$_{2}$Au,0.0,eV/atom,