formula,Property band_gap,Property band_gap units,Property SMILES
S$_{4}$N$_{2}$O$_{3}$F,1.3392,eV/atom,
Er$_{7}$FeI$_{12}$,0.0,eV/atom,
NdZn$_{5}$,0.0,eV/atom,
GePbO$_{3}$,2.7131,eV/atom,
MgAs$_{2}$(XeF$_{8}$)$_{2}$,2.9713000000000003,eV/atom,
Bi$_{6}$Br$_{7}$,1.4121000000000001,eV/atom,
SmFeSi,0.0,eV/atom,
Cu$_{3}$Mo$_{2}$(HO$_{5}$)$_{2}$,0.22649999999999992,eV/atom,
Mo$_{6}$PbCl$_{14}$,2.6067,eV/atom,
Be$_{3}$N$_{2}$,2.7645,eV/atom,
BaNaBi,0.2354999999999996,eV/atom,
BaPSe$_{3}$,2.1557000000000004,eV/atom,
Ti$_{3}$CuO$_{8}$,0.0,eV/atom,
HoMnO$_{3}$,0.0,eV/atom,
KVH$_{2}$SO$_{7}$,1.9434,eV/atom,
Mn$_{3}$GaN,0.0,eV/atom,
Cu$_{4}$W(SCl)$_{4}$,0.0,eV/atom,
LuPO$_{4}$,5.9929,eV/atom,
KI,3.7152000000000003,eV/atom,
Mn$_{3}$(Ni$_{10}$P$_{3}$)$_{2}$,0.0,eV/atom,
ZnS,2.0257000000000005,eV/atom,
Sm(FeGe)$_{2}$,0.0,eV/atom,
NaC$_{2}$N$_{3}$,4.5207999999999995,eV/atom,
Ca(GaS$_{2}$)$_{2}$,2.9147000000000003,eV/atom,
Sn$_{2}$H$_{21}$C$_{6}$ClO$_{2}$,2.8846999999999996,eV/atom,[O-][Sn](C)(C)C.Cl[Sn](C)(C)C.O
Ti$_{2}$AlN,0.0,eV/atom,
Cs$_{2}$Al(NO$_{3}$)$_{5}$,2.9065,eV/atom,
TmCuAs$_{2}$,0.0,eV/atom,
Cs$_{6}$GaSb$_{3}$,0.44110000000000005,eV/atom,
Co$_{4}$B$_{6}$O$_{13}$,2.8023999999999996,eV/atom,
CdSe,3.5799000000000003,eV/atom,
KInS$_{2}$,2.0103,eV/atom,
SmB$_{2}$Rh$_{3}$,0.0,eV/atom,
GeOs$_{2}$C$_{8}$(ClO$_{2}$)$_{4}$,2.0246,eV/atom,
Pb(CO$_{2}$)$_{2}$,2.7868000000000004,eV/atom,
Rb$_{8}$NO$_{3}$,0.0,eV/atom,
K$_{3}$AsS$_{4}$,2.0132,eV/atom,
HgSO$_{4}$,1.3556999999999997,eV/atom,
Rb$_{2}$FeCu(CN)$_{6}$,0.0,eV/atom,
KSiHO$_{3}$,4.768199999999999,eV/atom,
CaHCl,3.8367999999999993,eV/atom,
V$_{4}$GaS$_{8}$,0.0,eV/atom,
PbF$_{4}$,1.9022000000000001,eV/atom,
Fe$_{2}$CoO$_{4}$,1.5457,eV/atom,
Cs$_{2}$Ge$_{2}$S$_{5}$,2.4156,eV/atom,
La$_{2}$TcNiO$_{6}$,0.0,eV/atom,
TiSe$_{2}$,0.0,eV/atom,
Cs$_{2}$Cu$_{3}$SnF$_{12}$,0.04729999999999995,eV/atom,
U$_{3}$Co$_{2}$Ge$_{7}$,0.0,eV/atom,
SbRu,0.0,eV/atom,
ErN,0.12429999999999986,eV/atom,
Cs$_{2}$NaErF$_{6}$,6.863899999999999,eV/atom,
PrRh$_{3}$C,0.0,eV/atom,
V$_{5}$Sb$_{4}$,0.0,eV/atom,
V$_{3}$Sn,0.0,eV/atom,
SrGa$_{4}$,0.0,eV/atom,
Hg$_{12}$SbBr(ClO$_{3}$)$_{2}$,0.0,eV/atom,
Na$_{2}$SrV$_{4}$O$_{12}$,3.0358,eV/atom,
Li$_{2}$B$_{12}$H$_{26}$O$_{7}$,5.2083,eV/atom,
Sr$_{2}$Bi$_{3}$,0.03110000000000035,eV/atom,
Na$_{4}$Al$_{3}$Ge$_{3}$BrO$_{12}$,4.0539000000000005,eV/atom,
Na$_{5}$Ga$_{3}$F$_{14}$,5.2178,eV/atom,
PuGa$_{6}$,0.0,eV/atom,
Dy,0.023400000000000087,eV/atom,
NaCdSb,0.0,eV/atom,
K$_{2}$CoP$_{2}$WO$_{10}$,2.6609999999999996,eV/atom,
Ba$_{2}$Zn$_{2}$ClF$_{7}$,4.354,eV/atom,
HoMnO$_{3}$,0.43510000000000026,eV/atom,
Lu(NiGe)$_{2}$,0.0,eV/atom,
Cu$_{4}$S$_{3}$N,0.0,eV/atom,
K$_{2}$PdCl$_{6}$,1.2027,eV/atom,
LiZr$_{2}$(PO$_{4}$)$_{3}$,4.2387999999999995,eV/atom,
YbNiO$_{3}$,0.0,eV/atom,
TmSi,0.0,eV/atom,
CeAl$_{5}$Ni$_{2}$,0.0012999999999987466,eV/atom,
Cs$_{2}$CoS$_{2}$,0.0,eV/atom,
Na$_{2}$CuH$_{4}$(C$_{2}$O$_{5}$)$_{2}$,0.7893000000000001,eV/atom,
NiBiSe,0.0,eV/atom,
K$_{4}$ZnBi$_{2}$,0.3315,eV/atom,
SrNiN,0.0,eV/atom,
La$_{7}$Ir$_{3}$,0.0,eV/atom,
MnPbO$_{3}$,0.045500000000000096,eV/atom,
GePt$_{2}$,0.0,eV/atom,
UP$_{2}$(PbO$_{5}$)$_{2}$,1.7665999999999995,eV/atom,
Zr(MoO$_{4}$)$_{2}$,3.1318,eV/atom,
NdSi$_{2}$Ni,0.0,eV/atom,
H$_{8}$S$_{2}$N$_{2}$O$_{5}$,3.351,eV/atom,
Cs$_{2}$Te$_{3}$As,0.8325,eV/atom,
Na$_{7}$(Cu$_{6}$S$_{5}$)$_{2}$,0.0,eV/atom,
Na$_{2}$UO$_{4}$,2.0003,eV/atom,
FeSnRh$_{2}$,0.0,eV/atom,
CNO,0.006099999999999994,eV/atom,O=C=N
Ni(HO)$_{2}$,3.1318,eV/atom,
Rb$_{6}$U(Mo$_{2}$O$_{9}$)$_{2}$,2.3604,eV/atom,
Ba$_{5}$As$_{3}$ClO$_{12}$,3.9959999999999996,eV/atom,
BaCeC$_{2}$O$_{6}$F,0.27060000000000084,eV/atom,
Na$_{7}$Al$_{2}$Sb$_{5}$,0.29590000000000005,eV/atom,
Ce(Ni$_{2}$Sn)$_{2}$,0.0035000000000007248,eV/atom,
YAl$_{2}$Ni,0.0,eV/atom,
SmBi$_{2}$ClO$_{4}$,1.6805999999999996,eV/atom,
La$_{2}$Cu$_{2}$O$_{5}$,0.0,eV/atom,
HoTaO$_{4}$,4.050800000000001,eV/atom,
InAs,0.03160000000000007,eV/atom,
Mo$_{3}$H$_{9}$I$_{3}$(ClO)$_{4}$,0.11399999999999988,eV/atom,
Yb$_{5}$Si$_{3}$SO$_{12}$,0.10210000000000008,eV/atom,
CsEr(PO$_{3}$)$_{4}$,5.8088,eV/atom,
TlP(HO$_{2}$)$_{2}$,3.9882000000000004,eV/atom,
C$_{28}$Cl$_{5}$,1.3573000000000002,eV/atom,
Li$_{3}$VO$_{4}$,4.0337,eV/atom,
CrCuO$_{2}$,1.4692999999999996,eV/atom,
P$_{4}$Se$_{3}$,2.1677,eV/atom,
Dy(Al$_{2}$Fe)$_{4}$,0.0,eV/atom,
Sr(BO$_{2}$)$_{2}$,4.9456,eV/atom,
Ag$_{3}$Sb,0.0,eV/atom,
ZrRu$_{3}$C,0.0,eV/atom,
Be$_{2}$Re,0.0,eV/atom,
SeS$_{2}$(NO)$_{2}$,1.9484,eV/atom,O=S=N[Se]N=S=O
KBi$_{6}$BrO$_{9}$,2.3298,eV/atom,
As$_{2}$O$_{3}$,3.6199999999999997,eV/atom,
NaHf$_{2}$VF$_{11}$,3.1712000000000002,eV/atom,
K$_{2}$CeAg$_{3}$Te$_{4}$,0.0,eV/atom,
Tm$_{3}$Mn$_{3}$Ga$_{2}$Si,0.0,eV/atom,
Zr$_{2}$Al$_{3}$C$_{5}$,0.0,eV/atom,
Sr$_{2}$MnSbO$_{6}$,0.06510000000000016,eV/atom,
HgF$_{2}$,0.7638,eV/atom,
Ce$_{4}$Al$_{23}$Ni$_{6}$,0.0,eV/atom,
Na$_{4}$Mg$_{3}$P$_{4}$O$_{15}$,4.7301,eV/atom,
K$_{4}$CdCl$_{6}$,3.9837,eV/atom,
Sr$_{21}$In$_{8}$Pb$_{7}$,0.4916999999999998,eV/atom,
CuB$_{4}$O$_{7}$,0.18770000000000042,eV/atom,
CeCo$_{3}$,0.0,eV/atom,
Tm(MnGe)$_{2}$,0.0,eV/atom,
ZnFe$_{2}$(SeO$_{3}$)$_{4}$,2.2666,eV/atom,
PrCoO$_{3}$,0.0,eV/atom,
GeAs,0.7288999999999999,eV/atom,
SrRh$_{2}$,0.0,eV/atom,
RbNpN$_{3}$O$_{11}$,0.12729999999999997,eV/atom,
Ho$_{2}$B$_{4}$O$_{9}$,5.6073,eV/atom,
Sr(As$_{2}$Rh$_{3}$)$_{2}$,0.0,eV/atom,
Cd$_{2}$As$_{2}$O$_{7}$,1.5821999999999998,eV/atom,
Lu$_{4}$Ga$_{12}$Ni,0.0,eV/atom,
CuAsPbS$_{3}$,0.7903000000000002,eV/atom,
Sr$_{2}$MgWO$_{6}$,3.2641,eV/atom,
S,2.4349,eV/atom,
HfSO,2.8690999999999995,eV/atom,
Ba$_{2}$Mg$_{17}$,0.0,eV/atom,
Cs$_{3}$Sb$_{2}$N$_{3}$(O$_{3}$F$_{2}$)$_{3}$,3.1479,eV/atom,
LiTiPO$_{5}$,3.0747,eV/atom,
Tm$_{3}$(CuGe)$_{4}$,0.0,eV/atom,
U$_{2}$TeN$_{2}$,0.0,eV/atom,
TmSnIr,0.0,eV/atom,
B$_{3}$Pb$_{6}$ClO$_{10}$,2.816,eV/atom,
NaInSe$_{2}$,1.0191999999999997,eV/atom,
Nd$_{3}$Sb$_{5}$O$_{12}$,3.1547000000000005,eV/atom,
La$_{2}$B$_{3}$Br,0.0,eV/atom,
CeO$_{2}$,1.9544000000000001,eV/atom,
CdI$_{2}$,2.3605,eV/atom,
Eu(SbPd)$_{2}$,0.0,eV/atom,
InCl,2.1862,eV/atom,
Sr$_{3}$ZnPtO$_{6}$,2.5660999999999996,eV/atom,
TeO$_{2}$,2.9779999999999998,eV/atom,
Rb$_{2}$MoAs$_{2}$O$_{9}$,2.761,eV/atom,
Li$_{2}$CN$_{2}$,3.7218,eV/atom,
Eu(Sb$_{3}$Ru)$_{4}$,0.0,eV/atom,
YCuSb$_{2}$,0.0,eV/atom,
La(NiAs)$_{2}$,0.0,eV/atom,
Gd$_{2}$MnGa$_{6}$,0.0,eV/atom,
UTe$_{4}$Br$_{5}$,0.0028999999999999027,eV/atom,
Sb$_{2}$TeSe$_{2}$,0.5464000000000002,eV/atom,
Ag$_{2}$NClO$_{3}$,1.7053000000000003,eV/atom,
Ge$_{2}$C$_{2}$(SF$_{2}$)$_{3}$,3.3624,eV/atom,
Rb$_{4}$P$_{2}$Se$_{9}$,1.4230999999999998,eV/atom,
HoSiNi$_{4}$,0.0,eV/atom,
CdI$_{2}$,2.3609,eV/atom,
Na$_{3}$In(PO$_{4}$)$_{2}$,3.3646,eV/atom,
K$_{3}$Mo$_{4}$H$_{6}$O$_{16}$F,3.311,eV/atom,
Pr$_{5}$B$_{2}$C$_{5}$,0.0,eV/atom,
Na$_{4}$Sc$_{2}$Si$_{4}$O$_{13}$,4.6001,eV/atom,
Ba$_{3}$(GaS$_{3}$)$_{2}$,2.6755000000000004,eV/atom,
ZrTlCuSe$_{3}$,0.23679999999999968,eV/atom,
LaCuO$_{2}$,2.5161999999999995,eV/atom,
NaClO$_{4}$,5.2431,eV/atom,
CuHIO$_{4}$,0.07810000000000006,eV/atom,
UAl$_{2}$,0.0,eV/atom,
YbRh$_{2}$,0.0,eV/atom,
Ba$_{5}$AlIr$_{2}$O$_{11}$,0.0,eV/atom,
CeHgPd,0.0,eV/atom,
SrZrN$_{2}$,0.23580000000000023,eV/atom,
TiCl$_{4}$,3.4576,eV/atom,
Ca$_{3}$(Cu$_{2}$Sn)$_{4}$,0.0,eV/atom,
U(NiP)$_{2}$,0.0,eV/atom,
Ho$_{2}$SO$_{2}$,3.0336000000000003,eV/atom,
CaSn$_{2}$Rh,0.0,eV/atom,
Na$_{2}$Al$_{2}$Si$_{3}$(HO$_{3}$)$_{4}$,3.4414000000000002,eV/atom,
TlBr$_{2}$,1.7922000000000002,eV/atom,
Eu$_{2}$Ge,0.0,eV/atom,
Ca$_{3}$AlAs$_{3}$,0.7296000000000005,eV/atom,
Co$_{21}$(ReB$_{3}$)$_{2}$,0.0,eV/atom,
K$_{3}$Al$_{2}$(PO$_{4}$)$_{3}$,4.4329,eV/atom,
Ho$_{5}$Si$_{4}$,0.0,eV/atom,
SrCu$_{2}$GeS$_{4}$,1.0462999999999996,eV/atom,
Ba$_{5}$Er$_{2}$ZrAl$_{2}$O$_{13}$,2.5861,eV/atom,
Be$_{3}$P$_{2}$,0.14510000000000023,eV/atom,
Ba$_{2}$BiSbO$_{6}$,1.6979000000000006,eV/atom,
Y$_{3}$(CuSi)$_{4}$,0.0,eV/atom,
SmZnIn,0.0,eV/atom,
AsSXe$_{2}$(OF$_{3}$)$_{3}$,2.1909,eV/atom,
La(CuO$_{2}$)$_{2}$,0.0,eV/atom,
Al$_{3}$P$_{4}$H$_{18}$C$_{3}$N$_{3}$O$_{16}$,5.2174000000000005,eV/atom,
KCuPO$_{4}$,0.0,eV/atom,
H$_{3}$CSN$_{2}$,3.111,eV/atom,S=C(N)NNC(=S)N
Y$_{5}$Ge$_{4}$,0.0,eV/atom,
Si(Hg$_{2}$Se$_{3}$)$_{2}$,0.14360000000000017,eV/atom,
CaAu$_{2}$,0.0,eV/atom,
Na$_{6}$HfH$_{8}$S$_{5}$O$_{24}$,4.6625,eV/atom,
La$_{5}$MnPb$_{3}$,0.0,eV/atom,
NaLi$_{3}$SiO$_{4}$,4.4978,eV/atom,
BaSiP$_{4}$(HO$_{7}$)$_{2}$,5.7482999999999995,eV/atom,
Sm$_{4}$Al$_{23}$Ni$_{6}$,0.0,eV/atom,
RbCaH$_{3}$,3.2736,eV/atom,
Yb(GeRu)$_{2}$,0.0,eV/atom,
LiMoIO$_{6}$,2.1572,eV/atom,
Li$_{2}$CuP$_{6}$H$_{20}$C$_{2}$(N$_{3}$O$_{11}$)$_{2}$,0.4155,eV/atom,
FeS$_{3}$(NCl$_{2}$)$_{2}$,1.2118,eV/atom,
Cs$_{2}$Cr$_{4}$Cd(HO$_{4}$)$_{4}$,2.7029,eV/atom,
CaH$_{12}$S$_{2}$(NO$_{5}$)$_{2}$,4.7208000000000006,eV/atom,
U$_{3}$Tl$_{2}$(IO$_{5}$)$_{4}$,1.6891000000000003,eV/atom,
PuTe,0.0,eV/atom,
PAuCl$_{4}$,2.5498000000000003,eV/atom,
P$_{2}$Pb$_{3}$S$_{8}$,2.2581,eV/atom,[Pb+2].[Pb+2].[Pb+2].O=P([O-])([O-])OP([O-])([O-])=S.O=P(O)(O)OP([O-])([O-])=S.O=P(O)(O)OP(=S)(O)O.O=P(O)(O)OP(=S)(O)O.O=P(O)(O)OP(=S)(O)O.O=P(O)(O)OP(=S)(O)O.O=P(O)(O)OP(=S)(O)O.O=P(O)(O)OP(=S)(O)O
Al$_{4}$Co(BO$_{5}$)$_{2}$,2.8557000000000006,eV/atom,
Pb$_{2}$OF$_{2}$,2.8476,eV/atom,
Na$_{4}$H$_{20}$RuS$_{4}$(NO$_{9}$)$_{2}$,3.3169,eV/atom,
Ca$_{2}$Cu$_{6}$P$_{5}$,0.0,eV/atom,
Ca$_{5}$P$_{3}$HO$_{13}$,5.2116,eV/atom,
TlMo$_{2}$Cl$_{7}$O$_{2}$,2.4074,eV/atom,
Na$_{2}$YC(OF)$_{3}$,5.261,eV/atom,
TlBiS$_{2}$,0.49490000000000034,eV/atom,
CoBiAsO$_{5}$,2.4776,eV/atom,
B$_{10}$H$_{13}$,3.41,eV/atom,
Dy$_{3}$Co$_{6}$Sn$_{5}$,0.0,eV/atom,
AgO,0.17969999999999997,eV/atom,
Mg$_{3}$(Al$_{9}$Cr)$_{2}$,0.0,eV/atom,
BeP$_{2}$,0.8314000000000004,eV/atom,
TbNiBC,0.0,eV/atom,
Li$_{2}$PrAs$_{2}$,0.0,eV/atom,
K$_{2}$Co$_{3}$P$_{4}$(HO$_{4}$)$_{4}$,2.8373999999999997,eV/atom,
HCN,3.5894,eV/atom,N#CC(C#N)=C(N)N
Cs$_{3}$Fe$_{2}$Cl$_{9}$,0.5004,eV/atom,
YHSO$_{5}$,5.4776,eV/atom,
Rb$_{3}$AsSe$_{4}$,1.3144,eV/atom,
Ba$_{3}$FeS$_{5}$,0.0,eV/atom,
CaRh$_{2}$,0.0,eV/atom,
RbPSe$_{6}$,1.8607999999999998,eV/atom,
Cs$_{2}$PdF$_{6}$,2.3064999999999998,eV/atom,
MgMn$_{2}$O$_{4}$,1.0125000000000006,eV/atom,
Nd$_{5}$Cu$_{5}$O$_{13}$,0.0,eV/atom,
NiSn(ClO)$_{6}$,0.4728,eV/atom,
H$_{2}$,8.8483,eV/atom,
Hg$_{3}$SO$_{6}$,0.5529,eV/atom,
CsU$_{2}$O$_{6}$,0.041700000000000514,eV/atom,
Tb$_{5}$Rh$_{3}$,0.0,eV/atom,
LiTmSn$_{2}$,0.0,eV/atom,
Ba$_{2}$SrNp,0.0,eV/atom,
PrBi$_{2}$IO$_{4}$,1.2299000000000002,eV/atom,
La$_{2}$Ga$_{12}$Pd,0.0,eV/atom,
Sr$_{2}$LaTa$_{3}$O$_{11}$,3.0179,eV/atom,
Tb(Mo$_{3}$S$_{4}$)$_{2}$,0.0,eV/atom,
K$_{2}$CoCl$_{4}$,0.8275000000000001,eV/atom,
WSeS$_{2}$Cl$_{5}$,2.2777,eV/atom,
Ca$_{2}$Sn$_{5}$Pt$_{3}$,0.0,eV/atom,
CuI,1.5721999999999996,eV/atom,
Sr$_{8}$(MnN$_{3}$)$_{3}$,0.0,eV/atom,
H$_{6}$CN$_{3}$ClO,5.2019,eV/atom,
PrClO,4.698500000000001,eV/atom,
NaAsO$_{2}$,3.7311,eV/atom,
Gd$_{2}$WO$_{6}$,2.3282,eV/atom,
YZnSn,0.0,eV/atom,
KNa$_{2}$Zn$_{3}$(PO$_{4}$)$_{3}$,3.9,eV/atom,
Tl(CuS)$_{2}$,0.0,eV/atom,
CuH,0.5728,eV/atom,
LiPO$_{3}$,5.5611999999999995,eV/atom,
YInCu,0.0,eV/atom,
CoSiH$_{12}$(OF)$_{6}$,0.0,eV/atom,
K$_{2}$Zr$_{3}$OF$_{12}$,5.4252,eV/atom,
Fe$_{2}$C$_{8}$SO$_{10}$,2.4444,eV/atom,
Eu$_{3}$Ga$_{8}$,0.0,eV/atom,
LaAlO$_{3}$,3.7451999999999988,eV/atom,
LaCl$_{3}$,3.6454,eV/atom,
LiLa$_{2}$S$_{2}$O$_{8}$F$_{3}$,4.5891,eV/atom,
Ho$_{2}$Fe$_{14}$B,0.0,eV/atom,
Er(Al$_{2}$Cu)$_{4}$,0.0,eV/atom,
Ni$_{2}$P$_{2}$O$_{7}$,3.7657,eV/atom,
K$_{2}$S$_{5}$O$_{16}$,4.5508,eV/atom,
PC$_{2}$S$_{2}$N$_{3}$,3.3084000000000002,eV/atom,S=C=NP1(N=C=S)(N=C=S)N=PNP(N=C=S)(N=C=S)(N=C=S)N1
Ca$_{2}$Ni$_{3}$Ge$_{2}$,0.0,eV/atom,
Re,0.0,eV/atom,
CsU$_{2}$H$_{3}$(C$_{2}$O$_{7}$)$_{2}$,2.0856,eV/atom,
KNpAgS$_{3}$,0.0,eV/atom,
C$_{2}$SN$_{2}$,3.718,eV/atom,N#CSC#N
GdSi$_{2}$Rh$_{3}$,0.0,eV/atom,
Sm(AlAu)$_{2}$,0.0,eV/atom,
Th(CrSi)$_{2}$,0.0,eV/atom,
KAl(SO$_{4}$)$_{2}$,5.5291999999999994,eV/atom,
LiH$_{2}$N,3.8861,eV/atom,
Pr$_{4}$As$_{3}$,0.0,eV/atom,
ErSiRu,0.0,eV/atom,
YbCdPb,0.0,eV/atom,
Ni$_{21}$(SnP$_{3}$)$_{2}$,0.0,eV/atom,
Ti$_{4}$Fe(PO$_{4}$)$_{6}$,2.3256,eV/atom,
H$_{2}$C$_{2}$S$_{3}$N$_{2}$(OF)$_{6}$,5.8983,eV/atom,
Te$_{3}$WICl$_{6}$,0.0,eV/atom,
CsGdTe$_{4}$,0.07350000000000012,eV/atom,
CaLu$_{2}$O$_{4}$,3.9028,eV/atom,
ZnH$_{8}$C$_{2}$(SN$_{3}$)$_{2}$,4.2828,eV/atom,
In$_{5}$Br$_{7}$,2.0373,eV/atom,
HfGeO$_{4}$,4.161099999999999,eV/atom,
Tl(Mo$_{3}$Se$_{4}$)$_{2}$,0.0,eV/atom,
Cu$_{2}$SeO$_{4}$,0.2408999999999999,eV/atom,
MnTl$_{2}$H$_{2}$OF$_{5}$,1.218,eV/atom,
Ba$_{2}$UPbO$_{6}$,1.2277000000000005,eV/atom,
Bi$_{14}$Mo$_{5}$,0.0,eV/atom,
BiPO$_{4}$,3.6895000000000002,eV/atom,
As$_{2}$Os,0.6546000000000003,eV/atom,
CeMg$_{3}$,0.0,eV/atom,
BaNdFe$_{2}$O$_{5}$,0.0,eV/atom,
K$_{2}$In$_{2}$As$_{3}$,0.7807999999999997,eV/atom,
Ag$_{2}$HgI$_{4}$,1.0991999999999997,eV/atom,
Mn$_{2}$SnS$_{4}$,0.0,eV/atom,
Er$_{5}$S$_{7}$,0.0,eV/atom,
C$_{2}$S$_{7}$Cl$_{6}$,2.8703,eV/atom,
DyNiGe$_{3}$,0.0,eV/atom,
LiPt$_{2}$,0.0,eV/atom,
NiO,2.3008999999999995,eV/atom,
Sc$_{6}$Te$_{2}$Rh,0.0,eV/atom,
KSbO$_{3}$,1.7858999999999998,eV/atom,
Sm$_{3}$Si$_{2}$Ni,0.0,eV/atom,
Ca(FeAs)$_{2}$,0.0,eV/atom,
MgIn,0.0,eV/atom,
K$_{3}$Ta$_{4}$F$_{15}$,0.0,eV/atom,
Li$_{7}$P$_{3}$S$_{11}$,2.4142,eV/atom,
MnMoO$_{5}$,0.4025,eV/atom,
Sr$_{5}$Sb$_{3}$,0.33729999999999993,eV/atom,
Ce$_{3}$(SiPd)$_{4}$,0.0,eV/atom,
NaTbO$_{2}$,3.8922999999999996,eV/atom,
Sb$_{2}$MoO$_{6}$,1.3984,eV/atom,
Na$_{5}$TiP$_{2}$O$_{9}$F,3.1241999999999996,eV/atom,
NaNb(OF)$_{2}$,3.1327,eV/atom,
UMnSe$_{3}$,5.000000000006111E-4,eV/atom,
La$_{2}$O$_{3}$,3.8141,eV/atom,
FeSnRu$_{2}$,0.0,eV/atom,
Nd$_{3}$MnBi$_{5}$,0.0,eV/atom,
CuAu,0.0,eV/atom,
Tb$_{3}$Pd$_{4}$,0.0,eV/atom,
Pu$_{31}$Pt$_{20}$,0.0,eV/atom,
Eu(AsPd)$_{2}$,0.0,eV/atom,
KNb$_{8}$O$_{14}$,0.0,eV/atom,
Sr$_{4}$In$_{2}$N,0.0,eV/atom,
Nd$_{2}$Te$_{5}$,0.0,eV/atom,
MgSiO$_{3}$,2.4375999999999998,eV/atom,
Ce(FeP$_{3}$)$_{4}$,0.44510000000000005,eV/atom,
AlAs,1.5036999999999998,eV/atom,
DySbPt,0.4923000000000002,eV/atom,
La$_{3}$Si$_{3}$Cl$_{2}$,0.0,eV/atom,
La$_{2}$Sn$_{5}$Rh$_{3}$,0.0,eV/atom,
In$_{4}$GeS$_{4}$,1.0698000000000003,eV/atom,
N$_{2}$,6.5645,eV/atom,
Tl$_{2}$O,0.5714000000000001,eV/atom,
EuAsPt,0.011299999999999422,eV/atom,
ReN(OF$_{2}$)$_{3}$,2.6212999999999997,eV/atom,
CdI$_{2}$,2.4410000000000003,eV/atom,
NaCO$_{2}$,3.3888,eV/atom,
CaS,2.3819,eV/atom,
PuPt$_{3}$,0.0,eV/atom,
K(GeSe$_{2}$)$_{2}$,0.0,eV/atom,
K$_{2}$PtN$_{4}$(ClO$_{4}$)$_{2}$,2.079,eV/atom,
Sr$_{2}$Ge$_{2}$Pb,0.0,eV/atom,
U(BH$_{4}$)$_{4}$,0.0,eV/atom,
Ag$_{2}$PS$_{3}$,1.7759000000000005,eV/atom,
SnCNCl$_{3}$,0.0,eV/atom,
ErPd,0.0,eV/atom,
Sr$_{5}$As$_{3}$H,0.6763999999999997,eV/atom,
NpCo$_{2}$,0.0,eV/atom,
Lu(MnAl$_{2}$)$_{4}$,0.0,eV/atom,
TbAl$_{3}$,0.0,eV/atom,
CoPS$_{3}$,0.0,eV/atom,
Na$_{3}$MgC$_{2}$BrO$_{6}$,3.8547000000000002,eV/atom,
Li$_{5}$La$_{3}$Ta$_{2}$O$_{12}$,3.9718999999999998,eV/atom,
CsAl,0.0,eV/atom,
UW$_{3}$O$_{11}$,0.0,eV/atom,
TlV$_{5}$S$_{8}$,0.0,eV/atom,
FeClO,1.9415000000000002,eV/atom,
Dy$_{5}$In$_{3}$,0.0,eV/atom,
Ho$_{2}$Si$_{2}$O$_{7}$,4.616,eV/atom,
GeH$_{8}$N$_{2}$OF$_{6}$,5.6075,eV/atom,
KHo$_{2}$F$_{7}$,6.916099999999999,eV/atom,
BaNd$_{2}$MnS$_{5}$,0.0,eV/atom,
Ba$_{2}$LuIrO$_{6}$,0.0,eV/atom,
K$_{3}$Ca(PO$_{4}$)$_{2}$,0.10149999999999998,eV/atom,
GdSnPt$_{2}$,0.0,eV/atom,
KAlAs$_{2}$O$_{7}$,3.0235,eV/atom,
CdRe$_{2}$H$_{16}$C$_{4}$S$_{4}$(NO)$_{8}$,2.3899,eV/atom,
Re$_{2}$SCl$_{12}$,0.6747,eV/atom,
GaPPd$_{5}$,0.0,eV/atom,
Y$_{2}$Au$_{5}$F$_{21}$,1.7812,eV/atom,
U$_{3}$(Si$_{3}$Pd$_{10}$)$_{2}$,0.0,eV/atom,
Ga$_{2}$S$_{5}$N$_{5}$Cl$_{7}$,2.5008999999999997,eV/atom,
DyOs$_{2}$,0.0,eV/atom,
Ho$_{2}$Cr$_{2}$C$_{3}$,0.0,eV/atom,
CaSiO$_{3}$,4.7326,eV/atom,
Th$_{7}$Ir$_{3}$,0.0,eV/atom,
Pb(SeO$_{3}$)$_{2}$,1.2782999999999998,eV/atom,
Cs$_{3}$Ge$_{4}$Au,0.9304000000000001,eV/atom,
Co$_{2}$Mo$_{3}$O$_{8}$,0.0,eV/atom,
SiC$_{2}$,0.0,eV/atom,
Sr$_{2}$LiCoN$_{2}$,0.0,eV/atom,
Be$_{3}$Cd$_{4}$Si$_{3}$SeO$_{12}$,2.8506,eV/atom,
Tm$_{5}$Ir$_{2}$,0.0,eV/atom,
DyNbO$_{4}$,3.4638,eV/atom,
Y$_{3}$H$_{2}$,0.0,eV/atom,
CuH$_{8}$C$_{2}$(N$_{6}$Cl)$_{2}$,0.6377999999999999,eV/atom,
Fe$_{3}$Si,0.0,eV/atom,
NdCoSb$_{3}$,0.0,eV/atom,
K$_{3}$W$_{2}$Cl$_{9}$,1.3375000000000001,eV/atom,
Pt(SCl$_{4}$)$_{2}$,1.9113,eV/atom,
H$_{5}$BrO$_{2}$,4.3774,eV/atom,
La$_{10}$(B$_{3}$C$_{4}$)$_{3}$,0.0,eV/atom,
LaFeSi,0.0,eV/atom,
ScB$_{2}$,0.0,eV/atom,
TaS,0.0,eV/atom,
MgO$_{2}$,3.734,eV/atom,
KClO$_{3}$,5.4604,eV/atom,
Er$_{2}$WO$_{6}$,3.6938000000000004,eV/atom,
RbLu(SO$_{4}$)$_{2}$,5.8838,eV/atom,
SiAg$_{5}$ClO$_{4}$,0.5733000000000001,eV/atom,
U$_{3}$S$_{5}$,0.0,eV/atom,
TlBiSe$_{2}$,0.2322999999999995,eV/atom,
RbH$_{3}$(CO$_{2}$)$_{2}$,4.8136,eV/atom,
ScIr$_{3}$C,0.0,eV/atom,
NaMg$_{4}$(PO$_{4}$)$_{3}$,4.6212,eV/atom,
NdVO$_{4}$,3.0195,eV/atom,
Sr$_{2}$VO$_{4}$,0,eV/atom,
Ba$_{2}$P$_{7}$Cl,1.5636999999999994,eV/atom,
CuP$_{10}$,1.0585000000000004,eV/atom,
Gd$_{2}$Se$_{2}$O,1.3044000000000002,eV/atom,
Cr$_{3}$H$_{8}$(NO$_{5}$)$_{2}$,2.025,eV/atom,
Ba$_{3}$(GaN$_{2}$)$_{2}$,1.4937000000000005,eV/atom,
PrCd,0.0,eV/atom,
H$_{10}$PtC(N$_{4}$O)$_{2}$,2.0724,eV/atom,
Zr(IO$_{3}$)$_{4}$,3.1750999999999996,eV/atom,[Zr+4].O=I(=O)[O-].O=I(=O)[O-].O=I(=O)[O-].O=I(=O)[O-]
H$_{2}$O,5.3268,eV/atom,O
Ce$_{5}$Cu$_{19}$P$_{12}$,0.0,eV/atom,
Na(SnAs)$_{2}$,0.15559999999999974,eV/atom,
ZnS,2.0181000000000004,eV/atom,
KPt$_{2}$Se$_{3}$,0.9428000000000001,eV/atom,
Dy$_{3}$PbC,0.0,eV/atom,
Er(SiPd)$_{2}$,0.0,eV/atom,
CdI$_{2}$,2.4072,eV/atom,
Rb$_{3}$Er(PO$_{4}$)$_{2}$,4.603599999999999,eV/atom,
LiTlPHO$_{3}$,3.9939000000000004,eV/atom,
SCl$_{2}$O,3.6424,eV/atom,O=S(Cl)Cl
Dy$_{2}$Sb$_{5}$,0.0,eV/atom,
H$_{8}$C$_{2}$BrN,4.7465,eV/atom,
Mg$_{3}$Pd,0.0,eV/atom,
Ce$_{10}$Si$_{8}$O$_{3}$,0.0,eV/atom,
LiGaH$_{4}$,4.6865,eV/atom,
SbPtS,0.0,eV/atom,
Ba$_{2}$UCdO$_{6}$,1.8139999999999996,eV/atom,
CsB$_{5}$(H$_{2}$O$_{3}$)$_{4}$,5.6249,eV/atom,
CeNi,0.0,eV/atom,
CaMoO$_{3}$,1.1542000000000003,eV/atom,
Th(SiPd)$_{2}$,0.0,eV/atom,
K$_{2}$MnTe$_{2}$,0.8458999999999999,eV/atom,
Hf$_{2}$Ge,0.0,eV/atom,
La$_{3}$B(CBr)$_{2}$,0.0,eV/atom,
Sn$_{5}$(BRh$_{3}$)$_{2}$,0.0,eV/atom,
Zn$_{3}$As$_{2}$,0.17989999999999995,eV/atom,
Sr$_{5}$Al$_{9}$,0.01100000000000012,eV/atom,
Ba(CuSb)$_{2}$,0.0,eV/atom,
Y$_{2}$Si$_{4}$Mo$_{3}$,0.0,eV/atom,
BaZrO$_{3}$,3.0368000000000004,eV/atom,
Rb$_{2}$B$_{10}$H$_{6}$O$_{19}$,5.7894000000000005,eV/atom,
ThSe$_{2}$O$_{7}$,3.7518,eV/atom,
Co$_{7}$(AsO$_{6}$)$_{2}$,0.7673000000000005,eV/atom,
SiO$_{2}$,5.6471,eV/atom,
La$_{2}$Mn$_{2}$Se$_{2}$O$_{3}$,1.8540999999999999,eV/atom,
YbRe$_{2}$,0.0,eV/atom,
AlICl$_{6}$,2.2636000000000003,eV/atom,
NbRh$_{3}$,0.0,eV/atom,
NdCl$_{3}$,4.299799999999999,eV/atom,
Zr$_{3}$Ti$_{2}$Ga$_{3}$,0.0,eV/atom,
TlMo$_{6}$O$_{17}$,0.0,eV/atom,
KFeCo$_{3}$(PO$_{4}$)$_{3}$,2.3595,eV/atom,
AgBi(PS$_{3}$)$_{2}$,1.1797000000000004,eV/atom,
Cs$_{3}$MgH$_{5}$,2.5844,eV/atom,
NbSbRh,0.0,eV/atom,
Ba$_{3}$Zr$_{2}$S$_{7}$,0.5049999999999999,eV/atom,
Hf$_{2}$SN$_{2}$,2.0866000000000002,eV/atom,
Nd$_{4}$Se$_{3}$N$_{2}$,1.3721,eV/atom,
NbCrP,0.0,eV/atom,
CaIn$_{2}$O$_{4}$,1.9991000000000003,eV/atom,
Zn$_{13}$Rh,0.0,eV/atom,
BaNbO$_{3}$,0.0,eV/atom,
K$_{2}$CaCu(NO$_{2}$)$_{6}$,0.3385,eV/atom,
RuC,0.0,eV/atom,
Sr$_{2}$Co$_{2}$O$_{5}$,0.16149999999999975,eV/atom,
Nb$_{3}$Ge,0.0,eV/atom,
Ho$_{2}$FeC$_{4}$,0.0,eV/atom,
Ni$_{5}$As$_{2}$,0.04129999999999967,eV/atom,
Ca$_{10}$Ge$_{16}$(B$_{2}$O$_{17}$)$_{3}$,2.8867000000000003,eV/atom,
BaGe$_{2}$S$_{5}$,2.1837,eV/atom,
Li$_{2}$TbF$_{6}$,0.3232999999999999,eV/atom,
HfN$_{2}$,0.0,eV/atom,
H$_{6}$S(NO$_{2}$)$_{2}$,2.0645,eV/atom,
NaIO$_{3}$,0.0,eV/atom,
Cs$_{2}$TeCl$_{6}$,2.7815000000000003,eV/atom,
SmZn$_{3}$,0.0,eV/atom,
Na$_{8}$NO$_{3}$,0.0,eV/atom,
K$_{4}$Cu$_{8}$Te$_{11}$,0.0,eV/atom,
NpH$_{3}$,0.0,eV/atom,
K$_{3}$Rh(NO$_{2}$)$_{6}$,0.0,eV/atom,
Al$_{2}$H$_{16}$S$_{3}$O$_{20}$,5.5739,eV/atom,
SmAl$_{7}$Au$_{3}$,0.0,eV/atom,
K$_{2}$Cr$_{2}$HgCl$_{2}$O$_{7}$,2.5505,eV/atom,
Na$_{3}$Sc$_{2}$(PO$_{4}$)$_{3}$,4.6575,eV/atom,
Pr$_{4}$Se$_{3}$N$_{2}$,1.3761999999999999,eV/atom,
FeHgC$_{4}$(SN)$_{4}$,0.0,eV/atom,
SiBHC$_{3}$NCl$_{2}$,0.7866,eV/atom,
Cr$_{7}$Se$_{8}$,0.0,eV/atom,
Bi$_{2}$Os$_{2}$O$_{7}$,0.0,eV/atom,
Rb$_{2}$Bi$_{4}$O$_{7}$,2.6064000000000003,eV/atom,