formula,Property band_gap,Property band_gap units,Property SMILES
Rb$_{2}$TeH$_{6}$SO$_{10}$,0.03490000000000004,eV/atom,
Ba(CdGe)$_{2}$,0.0,eV/atom,
K$_{2}$Fe$_{2}$As$_{2}$O$_{9}$,1.8765,eV/atom,
TbIn$_{3}$,0.0,eV/atom,
Li$_{2}$FeSnS$_{4}$,0.0,eV/atom,
TbCuPbSe$_{3}$,1.2379000000000007,eV/atom,
RbCdAg$_{3}$(CN)$_{6}$,2.7894,eV/atom,
LiMoO$_{2}$,0.0,eV/atom,
Cs$_{2}$MnO$_{4}$,0.5825,eV/atom,
Cs$_{2}$MgFe(CN)$_{6}$,4.1775,eV/atom,
NbTeCl$_{9}$,2.1696999999999997,eV/atom,
TaCl$_{5}$,2.8236999999999997,eV/atom,
Cs$_{2}$MnSnTe$_{4}$,0.3822000000000001,eV/atom,
VO$_{2}$,0.5916000000000001,eV/atom,
Os$_{3}$C$_{8}$SO$_{8}$,1.7639,eV/atom,
Zn$_{2}$Hg$_{2}$H$_{2}$S$_{2}$O$_{11}$,1.9089,eV/atom,
Nd$_{2}$Ti$_{4}$O$_{11}$,3.1437000000000004,eV/atom,
Sb$_{8}$Pb$_{7}$S$_{19}$,1.0694999999999997,eV/atom,
DyB$_{12}$,0.0,eV/atom,
NdNiSb$_{3}$,0.0,eV/atom,
TlHg$_{3}$As$_{2}$Cl$_{3}$,0.8915999999999997,eV/atom,
Cr$_{3}$HO$_{8}$,0.0,eV/atom,
Zn$_{3}$(BO$_{3}$)$_{2}$,2.7175,eV/atom,
KSc$_{2}$F$_{7}$,5.706099999999999,eV/atom,
KH$_{18}$RuN$_{6}$(ClO$_{2}$)$_{4}$,0.0,eV/atom,
PS$_{2}$N$_{3}$Cl$_{2}$(OF)$_{2}$,4.803100000000001,eV/atom,
Lu$_{2}$Si$_{5}$Ru$_{3}$,0.0,eV/atom,
RbF,5.9045,eV/atom,
BaZnO$_{2}$,2.2704999999999997,eV/atom,
Ho(Ni$_{2}$P)$_{2}$,0.0,eV/atom,
Ti(PS$_{3}$)$_{2}$,1.4287,eV/atom,
Hg$_{3}$SO$_{6}$,0.5677999999999999,eV/atom,
La$_{2}$Hf$_{2}$O$_{7}$,4.232799999999999,eV/atom,
TlHg(NO$_{2}$)$_{3}$,0.0,eV/atom,
EuGePt,0.06050000000000022,eV/atom,
K$_{3}$SiN(OF$_{2}$)$_{3}$,3.3592,eV/atom,
Eu(AsPt)$_{2}$,0.0,eV/atom,
Sr$_{2}$MnCu$_{2}$(SO)$_{2}$,0.0,eV/atom,
SrLiP,1.3430999999999997,eV/atom,
SiO$_{2}$,1.4904000000000002,eV/atom,
H$_{2}$Pd(PbO$_{2}$)$_{2}$,1.3215,eV/atom,
Dy$_{3}$(AgSn)$_{4}$,0.019599999999999618,eV/atom,
Cs$_{2}$U(SiO$_{4}$)$_{2}$,2.2215000000000003,eV/atom,
La$_{2}$Zn$_{17}$,0.0,eV/atom,
SiO$_{2}$,5.6107,eV/atom,
Rb$_{3}$PdF$_{5}$,2.2340999999999998,eV/atom,
Fe$_{4}$Si(CO)$_{16}$,2.6164,eV/atom,
Sr$_{4}$P$_{2}$O,1.2134,eV/atom,
N$_{3}$Cl,2.3584,eV/atom,[N-]=[N+]=NCl(N=[N+]=[N-])N=[N+]=[N-]
Sc$_{3}$Si$_{3}$Ni,0.0,eV/atom,
PrSi$_{2}$Ni,0.0,eV/atom,
Ca(BO$_{2}$)$_{2}$,5.456799999999999,eV/atom,
CsNdCdTe$_{3}$,1.5146000000000002,eV/atom,
Sm$_{3}$Zn$_{11}$,0.0,eV/atom,
La$_{3}$Sn$_{13}$Rh$_{4}$,0.0,eV/atom,
PrZnPO,1.1665,eV/atom,
DyTc$_{2}$,0.0,eV/atom,
Eu(AlCl$_{4}$)$_{2}$,1.5857,eV/atom,
Rb$_{2}$MnTe$_{2}$,0.9598999999999998,eV/atom,
Er$_{5}$Al$_{3}$Ni$_{3}$Ge$_{4}$,0.0,eV/atom,
Pt(NCl$_{3}$)$_{2}$,0.0,eV/atom,
NpSnIr,0.0,eV/atom,
Ca$_{3}$Mn$_{2}$(Si$_{2}$O$_{7}$)$_{2}$,1.8170000000000002,eV/atom,
Na$_{2}$LiFe(Si$_{2}$O$_{5}$)$_{3}$,3.3919,eV/atom,
Mn$_{3}$ZnN,0.0,eV/atom,
Li$_{4}$P$_{2}$O$_{7}$,5.6108,eV/atom,
LiEuO$_{2}$,0.0,eV/atom,
Li$_{2}$Cu(WO$_{4}$)$_{2}$,0.42369999999999974,eV/atom,
Li$_{2}$Fe$_{3}$(P$_{2}$O$_{7}$)$_{2}$,3.8897,eV/atom,
SnH$_{22}$C$_{6}$(NCl$_{2}$)$_{2}$,4.292400000000001,eV/atom,
Gd$_{2}$AlNi$_{2}$,0.0,eV/atom,
SrCuTeF,1.5175999999999998,eV/atom,
SiPH$_{18}$C$_{6}$INCl,2.7535,eV/atom,ClI.N([Si](C)(C)C)=P(C)(C)C
CaSnPd,0.0,eV/atom,
Gd$_{4}$Au$_{2}$O$_{9}$,1.8748999999999998,eV/atom,
NaP(HO)$_{6}$,5.2186,eV/atom,
La$_{4}$Co$_{3}$O$_{10}$,0,eV/atom,
ZnPd$_{2}$,0.0,eV/atom,
V$_{3}$GaN,0.0,eV/atom,
TaNi$_{2}$,0.0,eV/atom,
Sr$_{3}$Pr$_{2}$(BO$_{3}$)$_{4}$,4.5407,eV/atom,
NaPO$_{3}$,4.7410000000000005,eV/atom,
La$_{3}$BN$_{2}$O$_{3}$,1.2114000000000011,eV/atom,
Ba$_{2}$N,0.05479999999999974,eV/atom,
Rb$_{2}$LiVS$_{4}$,1.6476,eV/atom,
Ti$_{3}$(BiO$_{3}$)$_{4}$,2.424899999999999,eV/atom,
Mn$_{2}$SiO$_{4}$,2.3411,eV/atom,
H$_{9}$OsN$_{7}$Cl$_{2}$,0.08870000000000003,eV/atom,
B$_{3}$Os$_{2}$,0.0,eV/atom,
Ca$_{2}$Pt$_{3}$O$_{8}$,1.1236000000000002,eV/atom,
Mg$_{3}$B$_{7}$ClO$_{13}$,6.0062999999999995,eV/atom,
YGaPd,0.0,eV/atom,
Ce$_{3}$LuSe$_{6}$,0.0,eV/atom,
ThNiSn,0.0,eV/atom,
AgSb(S$_{8}$F$_{3}$)$_{2}$,2.7422,eV/atom,
Ba$_{2}$CuWO$_{6}$,0.0,eV/atom,
MgCrO$_{4}$,2.3629,eV/atom,
Rb$_{4}$NO,0.0,eV/atom,
La$_{3}$CuSnSe$_{7}$,1.2088,eV/atom,
ErCuPb,0.0,eV/atom,
TbNiC$_{2}$,0.0,eV/atom,
KAg$_{2}$,0.0,eV/atom,
AlSiH$_{9}$C$_{3}$Cl$_{2}$O,5.4030000000000005,eV/atom,
LaZn(BO$_{2}$)$_{5}$,4.7136,eV/atom,
Ce$_{5}$Ir$_{4}$,0.0,eV/atom,
Na$_{3}$AlF$_{6}$,5.8904000000000005,eV/atom,
TbRe$_{2}$,0.0,eV/atom,
K$_{4}$Sn$_{9}$,1.1220999999999997,eV/atom,
NdGe$_{2}$Pt,0.0,eV/atom,
S$_{2}$XeNO$_{4}$F$_{3}$,2.7588999999999997,eV/atom,
AgN$_{3}$,1.6377000000000002,eV/atom,
Al$_{3}$(BRu$_{2}$)$_{2}$,0.0,eV/atom,
Sm$_{3}$SbO$_{3}$,0.9897,eV/atom,
EuZnPd,0.0,eV/atom,
U$_{2}$SnPd$_{2}$,0.0,eV/atom,
NaCoF$_{3}$,2.9522,eV/atom,
U(CuSn)$_{2}$,0.0,eV/atom,
HoIn,0.0,eV/atom,
Hf$_{5}$Pb,0.0,eV/atom,
KNbSe$_{2}$,0.6854999999999993,eV/atom,
SbH$_{3}$SO$_{6}$,4.400499999999999,eV/atom,
CdCO$_{3}$,2.6226000000000003,eV/atom,
BaGaF$_{5}$,5.7568,eV/atom,
TbMg,0.0,eV/atom,
CoSi$_{2}$,0.0,eV/atom,
CaMn$_{2}$O$_{4}$,1.4165,eV/atom,
KGeSbO$_{5}$,2.5520000000000005,eV/atom,
K$_{2}$Te$_{2}$O$_{5}$,3.4082000000000003,eV/atom,
Cr$_{5}$Si$_{3}$C,0.0,eV/atom,
In$_{4}$SnS$_{4}$,1.1714000000000002,eV/atom,
Be$_{3}$Fe$_{4}$Si$_{3}$SO$_{12}$,3.1762,eV/atom,
KAsSe$_{2}$,1.5885000000000002,eV/atom,
Na$_{2}$Re(ClO)$_{6}$,0.0629,eV/atom,
CsNpAgS$_{3}$,0.008700000000000152,eV/atom,
SmCo$_{3}$,0.0,eV/atom,
SbCSCl$_{2}$F$_{9}$,3.8,eV/atom,FC(F)(F)[S+](Cl)Cl.F[Sb-](F)(F)(F)(F)F
CuSb$_{2}$(XeF$_{8}$)$_{2}$,0.06940000000000035,eV/atom,
UFeSi,0.0,eV/atom,
Sr$_{2}$SnO$_{4}$,2.5727,eV/atom,
LaPbAu,0.0,eV/atom,
Mn$_{3}$Sn$_{2}$,0.0,eV/atom,
GdMoC$_{2}$,0.0,eV/atom,
Sc$_{6}$FeSb$_{2}$,0,eV/atom,
CdS,1.0461,eV/atom,
Sr$_{2}$GdRuO$_{6}$,0.16999999999999993,eV/atom,
TiNiP,0.0,eV/atom,
Rb$_{3}$GaO$_{3}$,2.4165,eV/atom,
Pr$_{3}$Si$_{2}$S$_{8}$Cl,2.7393,eV/atom,
Cu$_{7}$Hg$_{6}$,0.0,eV/atom,
Sr$_{3}$Hg$_{2}$,0.0,eV/atom,
SnO,0.4096000000000002,eV/atom,
PuTe$_{3}$,0.0,eV/atom,
CsNaTiO$_{3}$,3.3617999999999997,eV/atom,
Ga$_{2}$PdI$_{8}$,1.4176,eV/atom,
Ti$_{2}$H$_{3}$Pd,0.0,eV/atom,
Nb$_{5}$Ga$_{13}$,0.0,eV/atom,
In$_{2}$H$_{10}$S$_{3}$O$_{17}$,4.0257,eV/atom,
Ta$_{5}$N$_{6}$,0.0,eV/atom,
TmB$_{12}$,0.0,eV/atom,
K$_{2}$Ti(Si$_{2}$O$_{5}$)$_{3}$,3.4251,eV/atom,
BaHgRuO$_{5}$,0.3148000000000002,eV/atom,
CeBPt$_{3}$,0.0,eV/atom,
Cd$_{2}$P$_{6}$O$_{17}$,4.2535,eV/atom,
SrPb,0.0,eV/atom,
UGa$_{3}$Ni,0.0,eV/atom,
LaFe$_{3}$(BO$_{3}$)$_{4}$,2.2811,eV/atom,
K$_{3}$BrO,0.889,eV/atom,
SiO$_{2}$,5.4327000000000005,eV/atom,
Cd,0.0,eV/atom,
NpSn$_{3}$,0.0,eV/atom,
GeS$_{2}$,2.5744,eV/atom,
ThPbI$_{6}$,2.4192,eV/atom,
AlPO$_{4}$,5.2949,eV/atom,
C$_{17}$F$_{5}$,0.9742,eV/atom,
ErNi$_{2}$B$_{2}$C,0.0,eV/atom,
EuSi,0.0,eV/atom,
Mn$_{2}$B$_{4}$W,0.0,eV/atom,
Co$_{3}$C,0.0,eV/atom,
Na$_{2}$TiZn$_{2}$SiO$_{7}$,3.0107,eV/atom,
Ba$_{4}$As$_{2}$O,0.6692999999999998,eV/atom,
Hf$_{2}$Ag,0.0,eV/atom,
Tl$_{2}$Ni$_{4}$P$_{4}$O$_{15}$,3.3299,eV/atom,
La$_{2}$InGe$_{2}$,0.0,eV/atom,
SiCl$_{2}$,2.0151,eV/atom,
Sc$_{2}$Si$_{2}$O$_{7}$,3.764400000000001,eV/atom,
Hf$_{5}$P$_{7}$Pd$_{9}$,0.01890000000000036,eV/atom,
HoAgSe$_{2}$,0.4780000000000002,eV/atom,
Dy$_{2}$Hf$_{2}$(MoO$_{4}$)$_{7}$,3.1912000000000003,eV/atom,
Sm$_{2}$In,0.0,eV/atom,
LaMgSi$_{2}$,0.0,eV/atom,
Na$_{2}$H$_{6}$C$_{4}$O$_{7}$,2.7221,eV/atom,
Fe$_{3}$Ni,0.0,eV/atom,
KHfCuF$_{7}$,0.3462,eV/atom,
Co$_{4}$Ge(CO)$_{13}$,1.958,eV/atom,
MoPH$_{3}$O$_{7}$,3.1857,eV/atom,
ZnCo$_{2}$Ge,0.011999999999999567,eV/atom,
SiO$_{2}$,4.1137999999999995,eV/atom,
Nd$_{5}$(MnB$_{3}$)$_{2}$,0.0,eV/atom,
Hf$_{7}$P$_{4}$,0.0,eV/atom,
Li$_{5}$H$_{9}$Pt$_{2}$,0.0,eV/atom,
BaGdCuSe$_{3}$,1.0211999999999999,eV/atom,
B$_{10}$H$_{13}$,3.206,eV/atom,
CoCu$_{2}$(BO$_{3}$)$_{2}$,0.08979999999999988,eV/atom,
Sc$_{6}$Si$_{11}$Ni$_{18}$,0.0,eV/atom,
Tl$_{2}$Pt,0.0,eV/atom,
HoCo$_{4}$B,0.0,eV/atom,
Rb$_{2}$CrH$_{2}$Cl$_{5}$O,2.327,eV/atom,
Pb$_{2}$WO$_{5}$,3.0894000000000004,eV/atom,
RbSiBiS$_{4}$,2.0817999999999994,eV/atom,
Mn$_{3}$B$_{7}$BrO$_{13}$,3.8383,eV/atom,
KGd(WO$_{4}$)$_{2}$,3.2310999999999996,eV/atom,
Mn$_{3}$PtN,0.0,eV/atom,
Rb$_{2}$Be$_{3}$Cd$_{2}$F$_{12}$,5.2364999999999995,eV/atom,
ScCo$_{3}$B$_{2}$,0.0,eV/atom,
U$_{2}$Tl$_{2}$Mo$_{3}$O$_{16}$,2.3226,eV/atom,
K$_{5}$LiGe$_{2}$O$_{7}$,3.1502,eV/atom,
USbO$_{5}$,0.0,eV/atom,
ZrRe$_{2}$,0.0,eV/atom,
V$_{5}$S$_{8}$,0.0,eV/atom,
Sr$_{5}$NbN$_{5}$,1.1591,eV/atom,
ThPb$_{3}$,0.0,eV/atom,
K$_{2}$NbF$_{7}$,4.5283999999999995,eV/atom,
Sb$_{3}$(BrF$_{8}$)$_{2}$,0.05590000000000006,eV/atom,
TbSiIr,0.0,eV/atom,
HfN$_{2}$,1.3901000000000003,eV/atom,
Si$_{3}$N$_{4}$,2.5243,eV/atom,
YB$_{2}$Rh$_{2}$C,0.0,eV/atom,
BaSm$_{2}$PtO$_{5}$,2.6058000000000003,eV/atom,
LiYF$_{4}$,7.3177,eV/atom,
CrPO$_{4}$,2.4649,eV/atom,
GdB$_{2}$Rh$_{2}$C,0.005799999999999805,eV/atom,
Y$_{2}$(SO$_{4}$)$_{3}$,5.6993,eV/atom,
KV$_{2}$P$_{2}$H$_{4}$O$_{13}$,0.5438000000000001,eV/atom,
HoIr,0.0,eV/atom,
SbSe$_{6}$IF$_{6}$,1.5285,eV/atom,
SrAsPd,0.0,eV/atom,
Ho$_{3}$Ni$_{13}$B$_{2}$,0.0,eV/atom,
U$_{6}$Fe$_{16}$Si$_{7}$C,0.0,eV/atom,
Na$_{4}$Zr$_{2}$(SiO$_{4}$)$_{3}$,4.3103,eV/atom,
CsAgCl$_{2}$,2.2017,eV/atom,
Na$_{2}$ZrGeO$_{5}$,3.4539,eV/atom,
GaBi,0.0,eV/atom,
Pr$_{3}$SiAgSe$_{7}$,1.4427000000000003,eV/atom,
WN$_{2}$,1.0696000000000003,eV/atom,
BH$_{6}$N,5.9642,eV/atom,
YbBr$_{2}$,4.4692,eV/atom,
H$_{3}$NO$_{4}$,3.7464,eV/atom,
GaPO$_{4}$,4.439100000000001,eV/atom,
Cu$_{2}$GeS$_{3}$,0.02579999999999938,eV/atom,
CuTeO$_{4}$,0.0,eV/atom,
SrTa$_{4}$O$_{11}$,3.5237,eV/atom,
ScFeSi$_{2}$,0,eV/atom,
Ba$_{2}$PrCu$_{3}$O$_{8}$,0.0,eV/atom,
V$_{2}$AsC,0.0,eV/atom,
Cs$_{2}$PtCl$_{4}$,2.0518,eV/atom,
Na$_{3}$B$_{5}$SO$_{8}$,3.8692,eV/atom,
NO$_{2}$,2.8133999999999997,eV/atom,
HgS$_{4}$,1.0461,eV/atom,[Hg+].N#C[S-].S=C(N)N.S=C(N)N
Y$_{3}$FeB$_{7}$,0.0,eV/atom,
Li$_{6}$ZrBeF$_{12}$,6.1837,eV/atom,
Ba$_{2}$ZnGe$_{2}$S$_{6}$O,2.0929,eV/atom,
CsS$_{2}$N$_{3}$O$_{4}$,2.6646,eV/atom,
Mg(FeO$_{2}$)$_{2}$,0.9805999999999999,eV/atom,
Ba$_{2}$PrCu$_{3}$O$_{7}$,0.0,eV/atom,
YbGePd,0.0,eV/atom,
Dy$_{2}$Ti$_{2}$O$_{7}$,2.7197,eV/atom,
Sr$_{2}$ZrCrO$_{6}$,0.0,eV/atom,
PrSe,0.0,eV/atom,
CdI$_{2}$,2.3295000000000003,eV/atom,
Cs$_{3}$MnI$_{5}$,2.2911,eV/atom,
HoMg$_{2}$,0.0,eV/atom,
InBr$_{3}$,2.489,eV/atom,
Yb$_{2}$(NiB$_{2}$)$_{3}$,0.0,eV/atom,
SiAs,1.4518999999999997,eV/atom,
KYH$_{4}$C$_{4}$O$_{9}$,1.1372,eV/atom,
K$_{2}$NaAlAs$_{2}$,1.026,eV/atom,
Re$_{2}$S$_{2}$O$_{13}$,2.3709,eV/atom,
BaGe$_{6}$,0.0,eV/atom,
SiP$_{2}$O$_{7}$,4.942200000000001,eV/atom,
Na$_{3}$Mg(BO$_{2}$)$_{5}$,4.5905,eV/atom,
La$_{3}$SbO$_{3}$,0.7545000000000011,eV/atom,
Na$_{2}$Li(H$_{2}$N)$_{3}$,2.1905,eV/atom,
Pr$_{2}$Co$_{7}$,0.0,eV/atom,
MnBe$_{2}$,0.0,eV/atom,
Ba$_{3}$Mo$_{2}$(P$_{2}$O$_{9}$)$_{2}$,2.384,eV/atom,
PrAl$_{4}$Ni,0.0,eV/atom,
ErBiPt,0.0,eV/atom,
KGd(PO$_{3}$)$_{4}$,3.4915,eV/atom,
Ca(GaS$_{2}$)$_{2}$,2.6243,eV/atom,
CaMg(SiO$_{3}$)$_{2}$,4.5994,eV/atom,
Na$_{3}$AlAs$_{2}$,0.8472,eV/atom,
Sr$_{5}$Tl$_{3}$,0.0,eV/atom,
Bi$_{4}$Te$_{7}$Pb,0.42210000000000036,eV/atom,
NaBeSi$_{3}$HO$_{8}$,4.9780999999999995,eV/atom,
SrCd$_{2}$H$_{16}$(Br$_{3}$O$_{4}$)$_{2}$,2.8586,eV/atom,
BaLu$_{2}$CoO$_{5}$,1.9953000000000003,eV/atom,
YCBr,0.0,eV/atom,
Pr$_{4}$Si$_{2}$S$_{3}$O$_{7}$,2.5915,eV/atom,
SbTeRu,0.7001999999999997,eV/atom,
Fe$_{9}$Co$_{7}$,0.0,eV/atom,
BaLiCoF$_{6}$,2.2721,eV/atom,
NaMnAsO$_{4}$,1.7334999999999998,eV/atom,
ErCd$_{3}$,0.0,eV/atom,
LiMg$_{2}$Ga,0.0,eV/atom,
Sr$_{28}$In$_{11}$,0.0,eV/atom,
K$_{4}$P$_{21}$I,1.3384,eV/atom,
In(IO$_{3}$)$_{3}$,3.4112999999999998,eV/atom,
Cs$_{3}$YF$_{6}$,5.3385,eV/atom,
Sm$_{10}$S$_{19}$,0.49650000000000016,eV/atom,
Sb$_{4}$IrC$_{5}$ClO$_{5}$F$_{22}$,2.9356999999999998,eV/atom,
SiO$_{2}$,5.4489,eV/atom,
Cs$_{4}$PbO$_{4}$,1.7688999999999997,eV/atom,
ZnS,2.0314,eV/atom,
Ba$_{2}$Si$_{3}$O$_{8}$,4.4855,eV/atom,
LiAsH$_{6}$(OF$_{2}$)$_{3}$,3.7843,eV/atom,
EuTl$_{2}$Pd,0.006000000000000227,eV/atom,
EuSeClO$_{3}$,0.0,eV/atom,
Er$_{3}$Sn$_{7}$,0.0,eV/atom,
CuH$_{10}$SO$_{9}$,0.009199999999999986,eV/atom,
As$_{8}$S$_{9}$,1.7164,eV/atom,
La(BOs)$_{2}$,0.0,eV/atom,
CrGa$_{4}$,0.0,eV/atom,
Li$_{4}$TbF$_{8}$,0.0,eV/atom,
TiCdO$_{3}$,2.1261,eV/atom,
SbCl(OF$_{3}$)$_{2}$,1.9104999999999999,eV/atom,O=[Cl+]=O.F[Sb-](F)(F)(F)(F)F
Ca(IN$_{3}$)$_{2}$,0.0,eV/atom,
SrAg$_{2}$,0.0,eV/atom,
HoIn$_{5}$Rh,0.0,eV/atom,
Cs$_{3}$Sb$_{2}$Cl$_{9}$,2.4695,eV/atom,
NaZr$_{2}$AgF$_{11}$,0.5246999999999999,eV/atom,
Cs$_{2}$CeAsS$_{3}$Cl$_{2}$,0.1059000000000001,eV/atom,
Ba$_{4}$Fe$_{2}$S$_{4}$I$_{5}$,0.0,eV/atom,
ZrNiGe,0.014599999999999724,eV/atom,
Zr$_{3}$As$_{2}$,0.0,eV/atom,
P$_{2}$H$_{16}$N$_{4}$O$_{7}$,4.7257,eV/atom,
TaH$_{20}$C$_{6}$N$_{3}$Cl$_{4}$,2.1963,eV/atom,
ScIn$_{3}$,0.0,eV/atom,
ZnP$_{2}$H$_{6}$O$_{5}$,4.7801,eV/atom,
MnBiO$_{3}$,0.29410000000000025,eV/atom,
AlI$_{3}$N$_{5}$,0.0,eV/atom,I[Al](I)I.N.N.N.N.N
CaFeSeO,1.9111000000000002,eV/atom,
La$_{2}$BiO$_{2}$,0.0,eV/atom,
Ba$_{2}$NdSbO$_{6}$,3.6649,eV/atom,
Fe$_{3}$P$_{2}$(HO)$_{16}$,3.1305000000000005,eV/atom,[Fe+2].[Fe+2].[Fe+2].O=P([O-])([O-])[O-].O=P([O-])([O-])[O-].O.O.O.O.O.O.O.O
CsBr$_{3}$,2.1967,eV/atom,
Th$_{3}$Pd$_{5}$,0.0,eV/atom,
Zr$_{6}$Ga$_{2}$Fe,0.0,eV/atom,
KAlN$_{4}$,0.20219999999999994,eV/atom,
KV$_{4}$Ag$_{11}$O$_{16}$,0.9071999999999998,eV/atom,
PrMgNi$_{4}$,0.0,eV/atom,
H$_{16}$RhN$_{5}$(ClO$_{4}$)$_{2}$,3.6608,eV/atom,
La$_{3}$Ir$_{2}$,0.0,eV/atom,
OsC,0.14530000000000065,eV/atom,
Dy$_{2}$CdSe$_{4}$,0.5865,eV/atom,
CdI$_{2}$,2.3255,eV/atom,
Cs$_{2}$NaCrF$_{6}$,3.9440999999999997,eV/atom,
Cs$_{2}$Sb$_{2}$Pd,0.8815999999999997,eV/atom,
Al$_{2}$Ge(O$_{2}$F)$_{2}$,4.0658,eV/atom,
CoH$_{19}$S$_{3}$N$_{5}$O$_{11}$,0.7462,eV/atom,
MnAl$_{2}$P$_{2}$(HO)$_{18}$,4.0877,eV/atom,
La(ReB)$_{4}$,0.0,eV/atom,
Sm$_{2}$MgIrO$_{6}$,0.0,eV/atom,
Si$_{3}$As$_{4}$,0.4043000000000001,eV/atom,
Lu$_{5}$NiPb$_{3}$,0.0,eV/atom,
KReO$_{4}$,4.0028,eV/atom,
Cs$_{2}$Se,0.0,eV/atom,
ThAs,0.0,eV/atom,
KSbSe$_{2}$,1.4444,eV/atom,
KB$_{3}$(H$_{3}$O$_{4}$)$_{2}$,4.0008,eV/atom,
TiCl$_{2}$,0.0,eV/atom,
CoTe$_{2}$,0.0,eV/atom,
Pr$_{4}$Si$_{2}$Se$_{3}$O$_{7}$,2.3921,eV/atom,
Na$_{4}$Zr$_{2}$Ti(CO$_{4}$)$_{4}$,3.1442000000000005,eV/atom,
Ce$_{9}$(Ni$_{13}$P$_{6}$)$_{2}$,0.0,eV/atom,
Bi$_{2}$Te$_{3}$,0.5335999999999999,eV/atom,
K$_{3}$V(PO$_{4}$)$_{2}$,1.9769,eV/atom,
ReC$_{4}$IO$_{4}$,2.3533,eV/atom,
LaRh$_{3}$,0.0,eV/atom,
LaSi$_{3}$Rh,0.0,eV/atom,
Al$_{2}$Ge$_{2}$O$_{7}$,3.4013,eV/atom,
Fe$_{2}$WO$_{6}$,1.8976000000000002,eV/atom,
ZnH$_{12}$SeO$_{10}$,3.9156,eV/atom,[Zn+2].O=[Se](=O)([O-])[O-].O.O.O.O.O.O
Si$_{12}$Ni$_{31}$,0,eV/atom,
Sn$_{4}$B$_{3}$Ir$_{7}$,0.0,eV/atom,
Cu$_{2}$Cl$_{2}$O,0.0,eV/atom,
RbSe,0.9119999999999999,eV/atom,
TbBRh$_{3}$,0.0,eV/atom,
Sr$_{2}$Sb$_{2}$O$_{7}$,1.3571,eV/atom,
SrMnPF,0.0,eV/atom,
SmInIr,0.0,eV/atom,
Nd$_{2}$Tl,0.0,eV/atom,
NaSn,0.34289999999999976,eV/atom,
ThBe$_{13}$,0.0,eV/atom,
La$_{7}$Ni$_{16}$,0.0,eV/atom,
Li$_{3}$SmSb$_{2}$,0.0,eV/atom,
SbTeClO$_{3}$,3.1498000000000004,eV/atom,
CePu$_{4}$Co$_{3}$,0.0,eV/atom,
KV$_{2}$CrO$_{7}$,2.1199000000000003,eV/atom,
TmCoGe$_{2}$,0.0,eV/atom,
Pr$_{2}$Te$_{2}$O$_{7}$,1.5336999999999996,eV/atom,
CsMoP$_{2}$O$_{7}$,3.7946999999999997,eV/atom,
Cu$_{3}$SbS$_{3}$,0.0,eV/atom,
SrPd$_{5}$,0.0,eV/atom,
TiCdF$_{6}$,4.3747,eV/atom,
K$_{3}$U$_{3}$Si$_{2}$O$_{13}$,0.5497000000000005,eV/atom,
Ba$_{2}$SnTe$_{5}$,0.0,eV/atom,
Te(CF$_{4}$)$_{2}$,4.4043,eV/atom,FC(F)(F)[Te](F)(F)C(F)(F)F
Eu(In$_{4}$Rh)$_{2}$,0.00649999999999995,eV/atom,
ThB$_{2}$C,0.0,eV/atom,
ZnGeN$_{2}$,1.6965,eV/atom,
KNaThF$_{6}$,6.588800000000001,eV/atom,
UNb$_{3}$O$_{10}$,0.0,eV/atom,
K$_{2}$MnSO$_{4}$F$_{3}$,1.3256999999999999,eV/atom,
BaCaCo$_{4}$O$_{7}$,0.843,eV/atom,
RbNaLi$_{6}$(SiO$_{4}$)$_{2}$,4.5916,eV/atom,
Hf$_{4}$CoP,0.0,eV/atom,
V$_{3}$As$_{2}$,0.0,eV/atom,
Rb$_{2}$Sn(GeO$_{3}$)$_{3}$,2.3752,eV/atom,
K$_{2}$Th(PSe$_{3}$)$_{3}$,1.458,eV/atom,
Nb$_{3}$Pb,0.0,eV/atom,
SiB$_{2}$Mo$_{5}$,0.0,eV/atom,
SmNiP,0.0,eV/atom,
Ta$_{3}$Si,0.0,eV/atom,
Tb$_{3}$Se$_{2}$ClO$_{8}$,4.0674,eV/atom,
CsZn$_{4}$P$_{3}$,0.02929999999999966,eV/atom,
Pr(NO$_{5}$)$_{3}$,0.02059999999999995,eV/atom,
SrCa$_{2}$In$_{2}$Ge,0.0,eV/atom,
Na$_{4}$(CoO$_{2}$)$_{7}$,0.0,eV/atom,
PNF$_{2}$,5.484299999999999,eV/atom,FN1P(F)(F)=NPNPNP(F)(F)(F)N(F)P1(F)(F)F
CeCrGe$_{3}$,0.0,eV/atom,
NCl,0.0,eV/atom,
FePH$_{4}$NO$_{4}$F,2.3960000000000004,eV/atom,
PbN$_{6}$,2.2747,eV/atom,
Zn$_{53}$Ni$_{16}$,0.0,eV/atom,
Li(TiS$_{2}$)$_{3}$,0.0,eV/atom,
NaSO$_{4}$,3.5176000000000003,eV/atom,
Te$_{2}$Os,0.0,eV/atom,
Ta$_{9}$(NiS$_{3}$)$_{2}$,0.0,eV/atom,
CrBiO$_{3}$,1.5957999999999997,eV/atom,
Ca$_{2}$ScOsO$_{6}$,0.08420000000000005,eV/atom,
Er$_{3}$B$_{5}$O$_{12}$,5.3497,eV/atom,
AgH$_{6}$C$_{4}$(NO)$_{2}$,2.3857,eV/atom,
PbSO$_{3}$,3.2196,eV/atom,
Tl$_{2}$Hg$_{3}$Se$_{4}$,1.0512000000000001,eV/atom,
Tb$_{3}$Ga$_{8}$Ag$_{3}$,0.0,eV/atom,
NiP$_{4}$O$_{11}$,4.9511,eV/atom,
NaI$_{3}$O$_{8}$,3.1308000000000002,eV/atom,
NdRe$_{2}$,0.0,eV/atom,
Sr$_{4}$Li$_{2}$Si$_{4}$N$_{8}$O,2.5722000000000005,eV/atom,
ThTa$_{2}$O$_{7}$,2.6556000000000006,eV/atom,
Sc$_{2}$Re$_{3}$Si$_{4}$,0.0,eV/atom,
NaPH$_{3}$C$_{2}$N$_{3}$O$_{4}$,3.6132999999999997,eV/atom,
SmO,0.0,eV/atom,
HfSb$_{2}$,0.0,eV/atom,
K$_{2}$PuCl$_{6}$,0.34739999999999993,eV/atom,
CaZnSiH$_{2}$O$_{5}$,3.6399999999999997,eV/atom,
Tl$_{4}$O$_{3}$,1.0973000000000002,eV/atom,
GePd$_{2}$,0.0,eV/atom,
Sr(YS$_{2}$)$_{2}$,1.8113000000000001,eV/atom,
Cs$_{2}$TaCl$_{6}$,0.0,eV/atom,
Sb$_{6}$Pb$_{4}$S$_{13}$,0.8506,eV/atom,
LiNbS$_{2}$,0.7134999999999998,eV/atom,
Ba$_{3}$SnO,0.0,eV/atom,
ZnS,2.0701,eV/atom,
Er$_{4}$(CoB$_{2}$)$_{3}$,0.0,eV/atom,
HoNiSb$_{2}$,0.0,eV/atom,
BaGdCuS$_{3}$,1.1892999999999998,eV/atom,
Rb$_{4}$Sn$_{2}$Au$_{7}$,0.13680000000000003,eV/atom,
NdPd$_{3}$S$_{4}$,0.0,eV/atom,
Cs$_{2}$NaFeF$_{6}$,3.8015,eV/atom,
Ba$_{2}$Mn$_{2}$Bi$_{2}$O,0.0,eV/atom,
Sc$_{2}$P$_{7}$Ru$_{12}$,0.00730000000000075,eV/atom,
BaLiP,0.6981999999999999,eV/atom,
Cs$_{4}$Sb$_{2}$O$_{5}$,2.5747,eV/atom,
Nb$_{7}$(BC)$_{4}$,0,eV/atom,
Na$_{3}$DyCl$_{6}$,5.2201,eV/atom,
HfP$_{2}$,0.0,eV/atom,
DyNiSb,0.3132999999999999,eV/atom,
CaV$_{2}$P$_{3}$HO$_{12}$,1.5189,eV/atom,
Cs(TeMo)$_{3}$,0.0,eV/atom,
Er$_{2}$(SO$_{4}$)$_{3}$,5.8883,eV/atom,
Ho(FeGe)$_{2}$,0.0,eV/atom,
DyBi$_{2}$ClO$_{4}$,1.3622,eV/atom,
CsBePO$_{4}$,5.1939,eV/atom,
KAuSe,1.8159999999999998,eV/atom,
Sr$_{3}$Co(CN)$_{3}$,1.1028000000000002,eV/atom,
Tl$_{3}$BSe$_{3}$,1.226,eV/atom,
Tm$_{2}$CdGe$_{2}$,0.0,eV/atom,
Sr$_{5}$Cd$_{2}$Sb$_{5}$F,0.0,eV/atom,
SmNi$_{2}$,0.0,eV/atom,
Zr$_{2}$Te,0.0,eV/atom,
KZn$_{4}$(PO$_{4}$)$_{3}$,3.83,eV/atom,
Sm$_{4}$Si$_{2}$Se$_{3}$O$_{7}$,2.3907,eV/atom,
Nd$_{3}$NbO$_{7}$,2.8045999999999998,eV/atom,
NpSbTe,0.0,eV/atom,
RbReO$_{4}$,4.1189,eV/atom,
YInCo$_{2}$,0.0,eV/atom,
RbIO$_{3}$,3.1835000000000004,eV/atom,
LuGeRh,0.0,eV/atom,
Zn$_{2}$SiO$_{4}$,2.2492,eV/atom,
Ba$_{2}$(SnSb$_{2}$)$_{3}$,0.0,eV/atom,
Cu$_{2}$SnHgTe$_{4}$,0.0,eV/atom,
CuB(CN)$_{4}$,3.2193,eV/atom,
AlSn$_{2}$P(H$_{3}$C)$_{8}$,3.3878000000000004,eV/atom,[Al](C)C.P([Sn](C)(C)C)[Sn](C)(C)C
Nd$_{3}$TlN,0.0,eV/atom,
NiP$_{2}$(H$_{8}$O$_{5}$)$_{2}$,5.0309,eV/atom,
Na$_{3}$SO$_{4}$F,5.1205,eV/atom,
Hf$_{2}$Cd,0.0,eV/atom,
CdI$_{2}$,2.3695000000000004,eV/atom,
Cu$_{3}$Pt,0.0,eV/atom,
Cu$_{3}$As$_{4}$H$_{18}$C$_{8}$Br$_{3}$(NO$_{2}$)$_{2}$,2.8057000000000003,eV/atom,
Ce$_{5}$(FeB$_{3}$)$_{2}$,0.0,eV/atom,
NaMg$_{3}$Al(MoO$_{4}$)$_{5}$,3.551,eV/atom,
UHg$_{3}$,0.0,eV/atom,
ZnO$_{2}$,1.3521999999999998,eV/atom,
Na$_{2}$Sr$_{2}$Al$_{2}$PO$_{4}$F$_{9}$,5.8328,eV/atom,
RbPS$_{3}$,1.8263000000000003,eV/atom,
LaGa$_{2}$Rh$_{3}$,0.0,eV/atom,
TbB$_{2}$,0.0,eV/atom,
CS$_{2}$,3.4275,eV/atom,[C]=S
NaGa(H$_{2}$N)$_{4}$,2.7434,eV/atom,
ErCoC$_{2}$,0.0,eV/atom,
Si(NiO$_{2}$)$_{2}$,3.385600000000001,eV/atom,
GaMo$_{2}$C,0.0,eV/atom,
TlIO$_{3}$,0.0,eV/atom,
MnSe$_{2}$O$_{5}$,2.4338,eV/atom,
CS$_{14}$,2.5353,eV/atom,
LaAsO$_{3}$,2.8816999999999995,eV/atom,
PH$_{2}$F$_{3}$,6.4376,eV/atom,
In$_{2}$TeO$_{6}$,1.0047000000000006,eV/atom,
LiNbO$_{3}$,3.7460999999999998,eV/atom,
MgCuAs,0.0,eV/atom,
Ba$_{4}$Al$_{5}$,0.0,eV/atom,
Li$_{2}$Si$_{3}$O$_{7}$,5.2253,eV/atom,
PuIr$_{2}$,0.0,eV/atom,
TmGa$_{3}$,0.0,eV/atom,
KIn$_{2}$F$_{7}$,3.9021999999999997,eV/atom,
Nb$_{2}$Ni$_{4}$O$_{9}$,0.0,eV/atom,
NdGe$_{2}$Pd,0.0,eV/atom,
NaGdCl$_{4}$,2.47,eV/atom,
PtI$_{4}$,0.6934,eV/atom,
MnAgO$_{4}$,0.7078000000000001,eV/atom,
CaHg$_{2}$,0.0,eV/atom,
Eu(ZnSb)$_{2}$,0.0,eV/atom,
NiC,0.0,eV/atom,