formula,Property band_gap,Property band_gap units,Property SMILES
Zn$_{12}$Pt$_{7}$,0.0,eV/atom,
K$_{3}$GeH$_{3}$S$_{3}$O$_{2}$,2.9783,eV/atom,
PuSb$_{2}$,0.0,eV/atom,
Ag$_{3}$Ge$_{5}$P$_{6}$,0.5381,eV/atom,
CdP$_{2}$,1.5218000000000003,eV/atom,
NaBPt$_{3}$,0.0,eV/atom,
Ta$_{5}$Ge$_{3}$,0.0,eV/atom,
Dy$_{5}$Ni$_{2}$Sb,0.0,eV/atom,
CaH$_{12}$(IO$_{6}$)$_{2}$,4.2475,eV/atom,
Ce(In$_{2}$Pd)$_{2}$,0.0,eV/atom,
KSr$_{2}$Cd$_{2}$Sb$_{3}$,0.2028000000000003,eV/atom,
U$_{2}$Mo,0.0,eV/atom,
Sr$_{5}$B$_{3}$BrO$_{9}$,3.8991,eV/atom,
K$_{2}$B$_{10}$H$_{9}$O,0.0,eV/atom,
NaTiO$_{2}$,0.0,eV/atom,
K$_{3}$Nb(SO$_{4}$)$_{4}$,2.9435000000000002,eV/atom,
PrSb$_{2}$Pd,0.0,eV/atom,
Ba$_{5}$Al$_{5}$Sn,0.0,eV/atom,
Ca$_{3}$WCl$_{2}$O$_{5}$,3.9325,eV/atom,
U$_{7}$Te$_{12}$,0.002100000000000435,eV/atom,
BaH$_{6}$C$_{2}$S$_{2}$N$_{2}$O$_{3}$,4.1094,eV/atom,[Ba+2].N#C[S-].N#C[S-].O.O.O
La$_{5}$Ir$_{2}$,0.0,eV/atom,
Bi(BO$_{2}$)$_{3}$,3.4257,eV/atom,
Nd$_{3}$NCl$_{6}$,3.3705999999999996,eV/atom,
KSO$_{2}$F,3.9815,eV/atom,
GdBrO,2.8895,eV/atom,
TeH$_{12}$(Cl$_{2}$O$_{3}$)$_{2}$,3.3771,eV/atom,
Rb$_{2}$MgH$_{8}$(CO$_{5}$)$_{2}$,4.535299999999999,eV/atom,
Yb$_{2}$AlSi$_{2}$,0.0,eV/atom,
Sc$_{3}$InB,0.12190000000000012,eV/atom,
BaCa(CO$_{3}$)$_{2}$,4.621899999999999,eV/atom,
Sr$_{4}$TiAs$_{4}$,1.3504999999999998,eV/atom,
Cd$_{2}$SnO$_{4}$,0.39979999999999993,eV/atom,
U$_{2}$InPt$_{2}$,0.0,eV/atom,
Ca$_{3}$(PO$_{4}$)$_{2}$,5.4611,eV/atom,
K$_{2}$Nd(PO$_{3}$)$_{5}$,5.2482999999999995,eV/atom,
NdAl$_{3}$Cu,0.0,eV/atom,
B$_{12}$S,0.0,eV/atom,
Ca$_{2}$Al$_{2}$FeSi$_{3}$HO$_{13}$,2.5432,eV/atom,
Li$_{3}$Sb,0.4833000000000003,eV/atom,
ScRu$_{2}$,0.0,eV/atom,
Eu(PRu)$_{2}$,0.0,eV/atom,
DyAu,0.0,eV/atom,
NaTh$_{2}$F$_{9}$,6.2533,eV/atom,
Cu$_{3}$Mo$_{2}$O$_{9}$,0.0,eV/atom,
Pr$_{2}$CdNi$_{2}$,0.0,eV/atom,
H$_{8}$CN$_{2}$(ClO$_{5}$)$_{2}$,4.351,eV/atom,
CdI$_{2}$,2.3962,eV/atom,
Na$_{3}$VP$_{2}$O$_{9}$,0.43489999999999984,eV/atom,
SnH$_{8}$(NCl$_{3}$)$_{2}$,2.5482,eV/atom,
Ba$_{5}$Fe$_{4}$S$_{11}$,0.045700000000000074,eV/atom,
BaGe$_{3}$Ir,0.0,eV/atom,
Ce(SnIr)$_{2}$,0.0,eV/atom,
TaMnP,0.0,eV/atom,
DyCoO$_{3}$,0.038000000000000256,eV/atom,
Zr(TiGa$_{2}$)$_{2}$,0.0,eV/atom,
SnAu$_{5}$,0.014299999999999535,eV/atom,
KF,6.3537,eV/atom,
SrMn$_{7}$O$_{12}$,0.0,eV/atom,
TbGeIr,0.0,eV/atom,
SiO$_{2}$,5.6041,eV/atom,
Sc$_{3}$Re$_{2}$Si$_{3}$,0.0,eV/atom,
Li$_{2}$Sm$_{2}$Ge$_{3}$,0.0,eV/atom,
Pr$_{2}$P$_{2}$AuO,0.0,eV/atom,
KHgSbS$_{3}$,1.8349,eV/atom,
Hf$_{2}$TaN$_{3}$,0.0,eV/atom,
Be$_{3}$Zn$_{4}$Si$_{3}$SO$_{12}$,3.9654,eV/atom,
NaClO$_{4}$,4.4897,eV/atom,
CuH$_{2}$(SeO$_{3}$)$_{2}$,0.0,eV/atom,
Ni$_{6}$Mo$_{2}$P$_{3}$,0.0,eV/atom,
FeNiPt$_{2}$,0.0,eV/atom,
Nb$_{3}$ClO$_{7}$,2.0193,eV/atom,
LiMnVO$_{4}$,2.2182,eV/atom,
V$_{4}$NiS$_{8}$,0.0,eV/atom,
H$_{2}$SeO$_{3}$,4.4855,eV/atom,
Fe$_{2}$B$_{2}$O$_{5}$,3.4246,eV/atom,
Ba$_{2}$BiRuO$_{6}$,0.0,eV/atom,
In$_{5}$Se$_{5}$Br,0.7419999999999995,eV/atom,
Cu$_{2}$SiSe$_{3}$,0.24020000000000064,eV/atom,
Ag,0.0,eV/atom,
Ca$_{3}$(CoO$_{3}$)$_{2}$,0.0,eV/atom,
TbTaO$_{4}$,4.0492,eV/atom,
LiCuH$_{4}$Cl$_{3}$O$_{2}$,0.30119999999999997,eV/atom,
NaClO$_{3}$,5.6182,eV/atom,
La$_{6}$Mg$_{22}$Al,0.0,eV/atom,
CuH$_{8}$C$_{6}$(N$_{3}$O)$_{2}$,4.999999999999449E-4,eV/atom,
HoCu(WO$_{4}$)$_{2}$,1.1334999999999997,eV/atom,
Ti$_{4}$Ga$_{3}$Ni$_{2}$,0.0,eV/atom,
KCdC$_{3}$(NO)$_{3}$,4.1312,eV/atom,
Nb,0.0,eV/atom,
NaSnN,0.9178999999999995,eV/atom,
LiTi(SiO$_{3}$)$_{2}$,0.0,eV/atom,
NaLaTiO$_{4}$,2.4214999999999995,eV/atom,
PdCl$_{2}$,0.9724,eV/atom,
ZnGa$_{3}$N$_{3}$O,0.09980000000000011,eV/atom,
CuSn,0.0,eV/atom,
Cu$_{3}$Sb,0.0,eV/atom,
Na$_{6}$TlSb$_{4}$,0.007400000000000073,eV/atom,
Dy(SiRu)$_{2}$,0.0,eV/atom,
BiI$_{3}$,0.0,eV/atom,
CeNiAsO,0.0,eV/atom,
K$_{5}$CeFe$_{2}$(NO$_{2}$)$_{12}$,0.0,eV/atom,
BaFe$_{2}$(P$_{2}$O$_{7}$)$_{2}$,2.3724999999999996,eV/atom,
NpH$_{2}$,0.0,eV/atom,
Al$_{14}$Co$_{5}$Si$_{2}$,0.0,eV/atom,
LiC$_{6}$,0.0,eV/atom,
Mn$_{2}$SnC$_{9}$BrO$_{9}$,2.198,eV/atom,
Mn$_{2}$C$_{7}$S$_{2}$O$_{7}$,2.5791999999999997,eV/atom,
K$_{3}$GeH$_{2}$NO$_{3}$,3.1784999999999997,eV/atom,
CeZr$_{3}$O$_{8}$,1.9003999999999999,eV/atom,
ZrCr$_{5}$P$_{3}$,0.0,eV/atom,
Ca$_{3}$Al$_{7}$Cu$_{2}$,0.05590000000000028,eV/atom,
Li$_{2}$UI$_{6}$,0.0,eV/atom,
MgNb$_{2}$O$_{6}$,3.4118000000000004,eV/atom,
BaRe$_{2}$H$_{2}$O$_{9}$,3.8947000000000003,eV/atom,
UTlF$_{5}$,0.2090999999999994,eV/atom,
BaSiC,0.25519999999999987,eV/atom,
Co(MoS$_{2}$)$_{2}$,0.0,eV/atom,
Na(Mo$_{3}$Se$_{4}$)$_{2}$,0.0,eV/atom,
ErNiC$_{2}$,0.0,eV/atom,
Tm$_{2}$O$_{3}$,3.9787,eV/atom,
VH$_{12}$N$_{3}$O$_{5}$F$_{2}$,2.7016,eV/atom,
Sr(SnAs)$_{2}$,0.028300000000000658,eV/atom,
Cd$_{2}$As$_{3}$Br,0.7680999999999998,eV/atom,
Dy$_{3}$Se$_{4}$O$_{12}$F,3.7410999999999994,eV/atom,
VOs,0.0,eV/atom,
RbH$_{3}$(SeO$_{3}$)$_{2}$,4.1504,eV/atom,
NaCO$_{2}$,0.06689999999999996,eV/atom,
RbNaSi$_{2}$O$_{5}$,4.4435,eV/atom,
La$_{2}$CuSbS$_{5}$,1.5791000000000004,eV/atom,
GaAs,0.19419999999999993,eV/atom,
HfAsOs,0.0,eV/atom,
K$_{2}$TaF$_{7}$,5.608499999999999,eV/atom,
DyVO$_{4}$,2.7757999999999994,eV/atom,
K$_{4}$VP$_{2}$S$_{9}$,1.2593999999999999,eV/atom,
Ti$_{3}$FeO$_{7}$,0.9458000000000002,eV/atom,
Ti$_{2}$Bi$_{2}$O$_{7}$,2.6108000000000002,eV/atom,
Rb$_{2}$SnI$_{6}$,0.12429999999999986,eV/atom,
Ba$_{2}$LaAg$_{5}$S$_{6}$,1.4623000000000004,eV/atom,
Tb(GeRh)$_{2}$,0,eV/atom,
K$_{2}$HgS$_{4}$,1.3367,eV/atom,
ScNiC$_{2}$,0.0,eV/atom,
CsReO$_{4}$,4.1562,eV/atom,
LuGa$_{2}$Ni,0.0,eV/atom,
K$_{2}$UO$_{4}$,1.9745,eV/atom,
Eu(NiGe)$_{2}$,0.0,eV/atom,
Ba$_{3}$BAsO$_{3}$,1.5213999999999999,eV/atom,
BaAl$_{2}$O$_{4}$,4.0969,eV/atom,
ReSF$_{4}$,0.4973,eV/atom,
TaNi$_{2}$TeSe,0.0,eV/atom,
YPd$_{3}$C,0.0,eV/atom,
Na$_{5}$MoNO$_{4}$,2.8906,eV/atom,
BiI$_{3}$,2.5339,eV/atom,
Ta$_{2}$Cr$_{4}$Si$_{5}$,0.0,eV/atom,
CrCu$_{2}$Si,0.0,eV/atom,
Ca$_{2}$SnO$_{4}$,2.7136000000000005,eV/atom,
SiC,1.8543000000000003,eV/atom,
Cs$_{3}$NdCl$_{6}$,4.9486,eV/atom,
CdMoO$_{4}$,2.4682,eV/atom,
Eu$_{2}$Cd$_{2}$As$_{3}$,0.0,eV/atom,
Na$_{3}$CrH$_{14}$(C$_{3}$O$_{8}$)$_{2}$,3.5970000000000004,eV/atom,
Ba$_{2}$NdMoO$_{6}$,0.0,eV/atom,
YSb,0.0,eV/atom,
Mg(CoGe)$_{6}$,0.0,eV/atom,
TiZn(BiO$_{3}$)$_{2}$,0.8966999999999992,eV/atom,
SnH$_{4}$C$_{2}$NO$_{4}$F,2.6395,eV/atom,
Ta$_{2}$Mn$_{4}$O$_{9}$,2.4553000000000003,eV/atom,
CeHg,0.0,eV/atom,
B$_{10}$(Pb$_{2}$O$_{7}$)$_{3}$,3.259,eV/atom,
Cs$_{2}$Ti(AgS$_{2}$)$_{2}$,1.6088,eV/atom,
Er$_{2}$WO$_{6}$,3.2025000000000006,eV/atom,
Lu$_{2}$CCl$_{2}$,1.0343999999999998,eV/atom,
Ca$_{5}$(GaN$_{2}$)$_{2}$,0.0,eV/atom,
VP$_{2}$O$_{7}$,1.3319,eV/atom,
CdI$_{2}$,2.3483,eV/atom,
ErMoO$_{4}$F,3.7276,eV/atom,
LaCoGe,0.0,eV/atom,
HfFeSi,0.0,eV/atom,
Sr$_{2}$LaCoO$_{6}$,0.0,eV/atom,
CsYSeCl$_{2}$O$_{3}$,4.4032,eV/atom,
YAl,0.0,eV/atom,
ZrTiF$_{6}$,0.0,eV/atom,
Sr$_{8}$Fe$_{3}$N$_{8}$,0.0,eV/atom,
Ba$_{2}$CdSe$_{3}$,1.5746,eV/atom,
Cs$_{4}$P$_{2}$PdSe$_{8}$,1.4224,eV/atom,
CsSmO$_{2}$,2.8983,eV/atom,
TiAs$_{2}$O$_{7}$,2.5598,eV/atom,
Ce(In$_{2}$Au)$_{2}$,0.0,eV/atom,
CaB$_{2}$(HO)$_{8}$,5.4176,eV/atom,
Na$_{4}$Mg(GeSe$_{3}$)$_{2}$,2.0392,eV/atom,
Ba$_{3}$SnP$_{3}$,0.8862999999999999,eV/atom,
Ti$_{4}$Tl$_{2}$O$_{9}$,2.8163000000000005,eV/atom,
AlAs$_{3}$S$_{5}$Cl$_{4}$,2.2534,eV/atom,
YGe,0.0,eV/atom,
Ni(BO$_{2}$)$_{2}$,3.6793000000000005,eV/atom,
KScH$_{4}$(C$_{2}$O$_{5}$)$_{2}$,3.262,eV/atom,[K+].[Sc+3].O=C([O-])C(=O)[O-].O=C([O-])C(=O)[O-].O.O
Ca$_{5}$V$_{3}$O$_{12}$F,3.8685000000000005,eV/atom,
UB$_{2}$C,0.0,eV/atom,
Cr$_{11}$Ge$_{8}$,0.0,eV/atom,
SrZrS$_{3}$,1.1848000000000005,eV/atom,
P$_{2}$H$_{10}$S$_{4}$N$_{2}$O,2.5304,eV/atom,
Ba$_{3}$V$_{4}$PbO$_{14}$,3.1539,eV/atom,
Pr$_{13}$Cd$_{58}$,0.0,eV/atom,
BiSeI,1.5745000000000005,eV/atom,
CaSi$_{3}$Pt,0.0,eV/atom,
KCuF$_{3}$,0.0,eV/atom,
Sm$_{3}$GaCo$_{3}$,0.0,eV/atom,
K$_{4}$Ge$_{9}$O$_{20}$,3.0665,eV/atom,
Ba$_{2}$CuOsO$_{6}$,0.0,eV/atom,
MnNbGe,0.0,eV/atom,
Er$_{6}$MnTe$_{2}$,0.0,eV/atom,
CuBr$_{4}$(NO)$_{2}$,0.20920000000000005,eV/atom,[Cu+2].[Br-].[Br-].[Br-].[Br-].O.O.[NH4+].[NH4+]
Zn$_{2}$PN$_{3}$,2.5976999999999997,eV/atom,
Y$_{7}$(O$_{2}$F$_{3}$)$_{3}$,2.7161000000000004,eV/atom,
K$_{2}$TeCl$_{6}$,2.5562,eV/atom,
ThMn$_{4}$(CuO$_{4}$)$_{3}$,0.0,eV/atom,
KAg$_{2}$AsO$_{4}$,0.2073999999999998,eV/atom,
DyInRh,0.0,eV/atom,
RbBe$_{2}$BO$_{3}$F$_{2}$,5.9642,eV/atom,
Bi$_{7}$Mo$_{2}$(AsO$_{8}$)$_{3}$,2.5321,eV/atom,
TmNi$_{4}$Au,0.0,eV/atom,
KAg(PO$_{3}$)$_{2}$,2.9041,eV/atom,
TaNiB$_{2}$,0.0,eV/atom,
GdInAu$_{2}$,0.0,eV/atom,
Ce$_{3}$B$_{2}$(ClO$_{2}$)$_{3}$,0.0,eV/atom,
Sm$_{3}$Ge$_{5}$,0.0,eV/atom,
Li$_{2}$WO$_{4}$,4.3259,eV/atom,
Li$_{2}$CuAs,0.0,eV/atom,
Hg$_{2}$Pb(SI)$_{2}$,1.6317,eV/atom,
MnSe$_{2}$O$_{5}$,2.4927,eV/atom,
K$_{6}$NaAu$_{2}$IO$_{8}$,1.8901,eV/atom,
CS$_{3}$(Br$_{2}$N)$_{2}$,1.2836,eV/atom,
GdZrSb,0.0,eV/atom,
CaIr$_{2}$,0.0,eV/atom,
Ti$_{5}$Ge$_{3}$,0.0,eV/atom,
PrAl$_{3}$,0.0,eV/atom,
Ba$_{2}$Nb$_{2}$TeO$_{10}$,2.9816000000000003,eV/atom,
Er$_{3}$Ga$_{8}$Ir$_{3}$,0.0,eV/atom,
Ag$_{2}$Te$_{2}$O$_{7}$,0.0,eV/atom,
Na$_{3}$Al$_{2}$(AsO$_{4}$)$_{3}$,3.258,eV/atom,
LiMgH$_{6}$Ir,3.3760000000000003,eV/atom,
Be$_{2}$Nb,0.0,eV/atom,
K$_{4}$Br$_{2}$O,0.9912,eV/atom,
Ba$_{2}$BiIrO$_{6}$,0.0,eV/atom,
Rb$_{3}$YF$_{6}$,5.0547,eV/atom,
Ba$_{3}$AlF$_{9}$,6.4405,eV/atom,
Na$_{2}$CoH$_{8}$(CO$_{5}$)$_{2}$,2.955,eV/atom,
Rb$_{2}$HfF$_{6}$,7.1297999999999995,eV/atom,
K$_{4}$V$_{3}$S$_{5}$O$_{23}$,2.8128,eV/atom,
InP(H$_{2}$O$_{3}$)$_{2}$,3.6671,eV/atom,
AlPd$_{2}$,0.0,eV/atom,
Ca$_{2}$Hg,0.0,eV/atom,
TlV$_{2}$SbO$_{8}$,2.7329,eV/atom,
V$_{2}$CuO$_{6}$,0.2016,eV/atom,
ZnP$_{2}$H$_{15}$C$_{5}$NO$_{9}$,4.7839,eV/atom,
K$_{2}$Li$_{14}$Pb$_{3}$O$_{14}$,1.9157000000000002,eV/atom,
NaAl$_{11}$O$_{17}$,4.4910000000000005,eV/atom,
Sc$_{2}$(Ni$_{7}$B$_{2}$)$_{3}$,0.0,eV/atom,
Ca$_{2}$Rh,0.0,eV/atom,
SrBiClO$_{2}$,3.3015,eV/atom,
LiEuPS$_{4}$,0.5603999999999996,eV/atom,
Li$_{8}$NO$_{3}$,0.0,eV/atom,
Ce(AlPd)$_{2}$,0.0,eV/atom,
Ag$_{3}$SI,0.5324999999999998,eV/atom,
ClO,0.0,eV/atom,
InBiO$_{3}$,2.733200000000001,eV/atom,
CaTaNO$_{2}$,1.6121999999999996,eV/atom,
MnHO$_{2}$,0.0,eV/atom,
RbBS$_{3}$,2.3886999999999996,eV/atom,
Rb$_{2}$Cu$_{2}$SnS$_{4}$,0.8784999999999998,eV/atom,
Sc(Fe$_{2}$Si)$_{2}$,0.0,eV/atom,
In$_{2}$Ag$_{2}$GeS$_{6}$,0.9558,eV/atom,
Li$_{3}$BN$_{2}$,3.3011,eV/atom,
TiGePd,0.0,eV/atom,
NdCrS$_{3}$,0.0,eV/atom,
AsF$_{3}$,5.359999999999999,eV/atom,
Rb$_{2}$Cd$_{3}$S$_{4}$,1.7838,eV/atom,
SmAu,0.0,eV/atom,
TmCrTeO$_{6}$,2.5925,eV/atom,
CuSe$_{2}$,0.0,eV/atom,
Ta$_{2}$PdSe$_{6}$,0.0,eV/atom,
LuInAu$_{2}$,0.0,eV/atom,
CsAuO,1.3835,eV/atom,
Ba$_{2}$ErRuO$_{6}$,0.07299999999999995,eV/atom,
BaSe$_{2}$O$_{5}$,3.3781000000000003,eV/atom,
Y$_{3}$Co$_{13}$B$_{2}$,0.0,eV/atom,
BaReH$_{7}$,0.4583999999999999,eV/atom,
V$_{2}$Cd$_{6}$Se$_{5}$O$_{21}$,2.3400999999999996,eV/atom,
Rb$_{3}$TlF$_{6}$,3.1498999999999997,eV/atom,
BrN,0.0,eV/atom,[Br-].[NH4+]
Mg(SbO$_{3}$)$_{2}$,1.0374999999999996,eV/atom,
LaAsPd,0.0,eV/atom,
ErSeF,2.112,eV/atom,
Sr$_{3}$TaHO$_{6}$,3.5432,eV/atom,
KNaV$_{2}$O$_{6}$,3.2404,eV/atom,
CeSiPt,0.0,eV/atom,
Al$_{3}$Ni,0.0,eV/atom,
Na$_{2}$H$_{6}$Pt,3.6147,eV/atom,
K$_{2}$MgP$_{2}$WO$_{10}$,3.4570999999999996,eV/atom,
Mg$_{2}$PN$_{3}$,3.5371000000000006,eV/atom,
Tl$_{3}$BiI$_{6}$,2.4892000000000003,eV/atom,
Cd$_{2}$(TeO$_{3}$)$_{3}$,1.9308999999999998,eV/atom,
NpB$_{6}$,0.0,eV/atom,
CoGeO$_{3}$,1.4632999999999994,eV/atom,
Fe$_{2}$(CO)$_{9}$,2.4707,eV/atom,
HfGePd,0.0,eV/atom,
SnF$_{4}$,3.0953,eV/atom,
Tb$_{2}$B$_{2}$C$_{3}$,0.0,eV/atom,
EuCdAu,0.03569999999999984,eV/atom,
K$_{2}$ReCl$_{6}$,1.0776,eV/atom,
Th$_{7}$Ru$_{3}$,0.0,eV/atom,
H$_{9}$PtN$_{2}$ClO$_{2}$,2.7884,eV/atom,
Ta$_{2}$Tl$_{3}$Cu$_{3}$S$_{8}$,1.8941000000000003,eV/atom,
Cd$_{4}$SiSe$_{6}$,0.8187,eV/atom,
U$_{2}$RhC$_{2}$,0.0,eV/atom,
AlTlBr$_{4}$,4.0998,eV/atom,
TbInIr,0.0,eV/atom,
Gd(SiPd)$_{2}$,0.0,eV/atom,
NaErCl$_{4}$,4.985,eV/atom,
KNaZrSi$_{3}$H$_{4}$O$_{11}$,4.920400000000001,eV/atom,
Ca$_{4}$P$_{2}$O,1.2714000000000003,eV/atom,
K$_{2}$CoP$_{4}$(HO$_{2}$)$_{8}$,3.2666999999999997,eV/atom,
YbSmSe$_{3}$,0.0,eV/atom,
Bi$_{4}$O$_{7}$,0.9039999999999999,eV/atom,
NdP,0.0,eV/atom,
PuNi$_{5}$,0.024499999999999744,eV/atom,
ReCl$_{3}$,0.9624999999999999,eV/atom,
KNd(PO$_{3}$)$_{4}$,5.356,eV/atom,
Ag$_{2}$F$_{5}$,0.0,eV/atom,
ErSi$_{2}$Ni,0.0,eV/atom,
SrInPd,0.0,eV/atom,
Dy$_{7}$Rh$_{3}$,0.0,eV/atom,
Cu$_{3}$AsSe$_{4}$,0.0,eV/atom,
NaW$_{2}$(Br$_{3}$O)$_{2}$,0.0,eV/atom,
GdIn$_{3}$,0.0,eV/atom,
Rb$_{2}$TiOF$_{5}$,0.0,eV/atom,
Fe$_{4}$C,0.0,eV/atom,
Bi$_{2}$SO$_{2}$,0.8247,eV/atom,
Zr$_{2}$Al,0.0,eV/atom,
SmCd$_{2}$,0.0,eV/atom,
GdCoSi,0.0,eV/atom,
Pr$_{2}$NCl$_{3}$,3.3932,eV/atom,
RbC$_{2}$I$_{3}$N$_{2}$,3.1540999999999997,eV/atom,
Sr(CdGe)$_{2}$,0.0,eV/atom,
CeMgCu$_{2}$,0.0,eV/atom,
BaLi$_{2}$Si,0.0,eV/atom,
Ca$_{2}$AsClO$_{4}$,3.795,eV/atom,
K$_{5}$CuSb$_{2}$,0.7470000000000001,eV/atom,
K$_{3}$Np(MoO$_{5}$)$_{2}$,0.35970000000000013,eV/atom,
BaVCdP$_{2}$O$_{9}$,2.4525,eV/atom,
V(CO)$_{6}$,0.46599999999999997,eV/atom,O=C=[V](=C=O)(=C=O)(=C=O)(=C=O)=C=O
AlPO$_{4}$,5.5314,eV/atom,
LiGaSe$_{2}$,2.0656,eV/atom,
Bi$_{6}$As$_{9}$Se$_{4}$S$_{10}$(O$_{4}$F$_{13}$)$_{5}$,2.0126,eV/atom,
La$_{2}$Al$_{2}$Ge,0.0,eV/atom,
TbZnRh,0.0,eV/atom,
YbHg$_{2}$,0.0,eV/atom,
Ge$_{7}$F$_{16}$,4.3804,eV/atom,
SmTlSe$_{2}$,2.0837,eV/atom,
Pr$_{8}$(BCl)$_{7}$,0.0,eV/atom,
Tb$_{3}$Ga$_{9}$Pt$_{2}$,0.0,eV/atom,
KV$_{3}$Cd$_{4}$O$_{12}$,2.3544,eV/atom,
Tb$_{2}$Si$_{5}$Ru$_{3}$,0.0,eV/atom,
Rb$_{2}$Ti$_{6}$O$_{13}$,2.6209000000000002,eV/atom,
Dy(CuSi)$_{2}$,0.0,eV/atom,
TbInPt$_{2}$,0.0,eV/atom,
Sc$_{2}$Co,0.0,eV/atom,
GdInPt,0.0,eV/atom,
H$_{4}$CSN$_{2}$,4.3252,eV/atom,N#C[S-].[NH4+]
Ni$_{3}$(PbSe)$_{2}$,0.0,eV/atom,
Sr$_{6}$Sb$_{6}$S$_{17}$,1.7409,eV/atom,
Ca(CuP)$_{2}$,0.0,eV/atom,
MoCl$_{4}$,0.0,eV/atom,
CeGaPd$_{2}$,0.0,eV/atom,
SrIn$_{6}$Cu$_{7}$,0.0,eV/atom,
K$_{6}$Fe$_{24}$S$_{26}$Cl,0.0,eV/atom,
SiO$_{2}$,5.660399999999999,eV/atom,
Mg$_{13}$Au$_{41}$,0.0,eV/atom,
Tl$_{5}$Se$_{2}$Cl,0.5641000000000003,eV/atom,
Ba$_{2}$NbVO$_{6}$,0.0,eV/atom,
Nd$_{3}$Te$_{4}$,0.0,eV/atom,
LaZn$_{11}$,0.0,eV/atom,
Ca$_{3}$(SiAs$_{2}$)$_{2}$,0.823,eV/atom,
GaAg$_{2}$,0.0,eV/atom,
SiO$_{2}$,4.8294,eV/atom,
EuTaO$_{4}$,0.0,eV/atom,
Tb$_{2}$C$_{3}$,0.0,eV/atom,
Pb$_{5}$(IF$_{4}$)$_{2}$,2.9883999999999995,eV/atom,
Y$_{2}$MgCu$_{2}$,0.0,eV/atom,
Ta$_{3}$Co$_{3}$C,0.0,eV/atom,
LiSc(SiO$_{3}$)$_{2}$,4.929,eV/atom,
CeMnGe,0.0,eV/atom,
Cs$_{2}$CuPb(NO$_{2}$)$_{6}$,0.0,eV/atom,
Na$_{3}$SO$_{4}$F,2.3611,eV/atom,
K$_{3}$InF$_{6}$,5.322100000000001,eV/atom,
YbNiSb,0.0,eV/atom,
GdNi$_{2}$B$_{2}$C,0.007600000000000051,eV/atom,
Mo$_{8}$P$_{5}$,0.0,eV/atom,
Co$_{2}$CuS$_{4}$,0.0,eV/atom,
SrBeB$_{2}$O$_{5}$,5.6873000000000005,eV/atom,
NaNb$_{3}$O$_{8}$,2.2455000000000003,eV/atom,
Nb$_{2}$Se$_{9}$,0.7637,eV/atom,
V$_{3}$Co,0.0,eV/atom,
TiAgF$_{6}$,0.2911999999999999,eV/atom,
K$_{3}$Ta$_{2}$S$_{11}$,1.6764999999999999,eV/atom,
H$_{2}$O,5.556800000000001,eV/atom,
Th(SiIr)$_{2}$,0.0,eV/atom,
MgH$_{2}$SO$_{5}$,5.5024,eV/atom,
MnFe$_{2}$Si,0.0,eV/atom,
MnH$_{2}$(SO$_{4}$)$_{2}$,4.6845,eV/atom,
KNbS$_{2}$,0.8120000000000003,eV/atom,
Na$_{2}$La$_{2}$Ti$_{3}$O$_{10}$,2.0913999999999997,eV/atom,
Ba$_{3}$(AlSn)$_{2}$,0.0,eV/atom,
Sr$_{2}$CrO$_{4}$,0.028999999999999915,eV/atom,
EuPb$_{3}$,0.0,eV/atom,
K$_{10}$Th$_{3}$(P$_{5}$S$_{18}$)$_{2}$,2.4436999999999998,eV/atom,
ErAl$_{9}$(Fe$_{2}$Si$_{3}$)$_{2}$,0.0,eV/atom,
DyTl$_{3}$,0.0,eV/atom,
KEr$_{2}$F$_{7}$,6.9713,eV/atom,
Yb$_{8}$Tl$_{3}$,0.0,eV/atom,
K$_{2}$Sb$_{4}$O$_{11}$,1.8457,eV/atom,
Na$_{2}$USiO$_{6}$,1.9761000000000002,eV/atom,
BaCd(PO$_{3}$)$_{4}$,4.396400000000001,eV/atom,
Gd$_{2}$ReC$_{2}$,0.0,eV/atom,
Sb$_{2}$H$_{4}$AuF$_{16}$,0.8936000000000001,eV/atom,
BaNd$_{2}$ZnO$_{5}$,3.056,eV/atom,
BaTi$_{6}$O$_{13}$,2.6401000000000003,eV/atom,
MgPSe$_{3}$,2.0382,eV/atom,
Sr$_{3}$UO$_{6}$,2.2074999999999996,eV/atom,
Ta$_{2}$Co,0.0,eV/atom,
MnGaFeCo,0.0,eV/atom,
LiPrGe,0.0,eV/atom,
Ti$_{2}$Si,0.0,eV/atom,
CeZnSn,0.0,eV/atom,
Sr$_{2}$HoGaCu$_{2}$O$_{7}$,0.0,eV/atom,
Ni$_{4}$Mo,0.0,eV/atom,
Nb$_{4}$Ni$_{2}$C,0.0,eV/atom,
CdI$_{2}$,2.4223,eV/atom,
FeP$_{3}$(HO$_{5}$)$_{2}$,2.9486,eV/atom,[Fe+3].O=P([O-])([O-])OP(=O)([O-])OP(=O)(O)O
LaH$_{4}$C$_{4}$NO$_{8}$,3.2798000000000003,eV/atom,
HgI$_{2}$,1.3282999999999998,eV/atom,
La$_{3}$PI$_{3}$,0.0,eV/atom,
Pr$_{2}$BC,0.0,eV/atom,
P$_{3}$Ir,0.08339999999999925,eV/atom,
FePSe$_{3}$,0.2601,eV/atom,
KHoBeF$_{6}$,7.398199999999999,eV/atom,
Pr$_{2}$Te$_{5}$,0.0,eV/atom,
Er$_{3}$Tl$_{5}$,0.0,eV/atom,
KVS$_{2}$O$_{9}$,1.8157999999999999,eV/atom,
InSeI,1.4358,eV/atom,
LaVO$_{3}$,0.0,eV/atom,
Cr(OF)$_{2}$,2.6878,eV/atom,
KCrP$_{2}$O$_{7}$,2.8453999999999997,eV/atom,
K$_{6}$Yb$_{3}$(PS$_{4}$)$_{5}$,0.0,eV/atom,
Sb$_{2}$Pd$_{5}$,0.0,eV/atom,
Ba$_{2}$PrSbO$_{6}$,3.684,eV/atom,
Be$_{17}$Nb$_{2}$,0.0,eV/atom,
EuTlPS$_{4}$,0.0,eV/atom,
CeSi$_{2}$Rh,0.0,eV/atom,
Nd$_{2}$CuGe$_{6}$,0.0,eV/atom,
K$_{3}$Ta$_{2}$Ag$_{3}$S$_{8}$,2.2936,eV/atom,
Os$_{2}$O$_{3}$F$_{7}$,0.5983999999999999,eV/atom,
BaPb,0.0,eV/atom,
Nb$_{3}$Tl,0.0,eV/atom,
Gd(CuSn)$_{2}$,0.0,eV/atom,
Ag$_{3}$BiO$_{3}$,1.5250000000000004,eV/atom,
Li$_{2}$BeSiO$_{4}$,5.5993,eV/atom,
PrAlH$_{6}$,2.0362999999999998,eV/atom,
Li$_{2}$Ca$_{4}$Si$_{4}$O$_{13}$,4.456,eV/atom,
RbBaPO$_{4}$,4.995900000000001,eV/atom,
NbO,0.0,eV/atom,
KBe$_{2}$BO$_{3}$F$_{2}$,6.0552,eV/atom,
CaIn$_{2}$Ir,0.0,eV/atom,
Bi$_{6}$PtCl$_{10}$,1.5756000000000001,eV/atom,
K$_{2}$InSi$_{4}$HO$_{11}$,4.0332,eV/atom,
LaCrTeO$_{6}$,2.7225,eV/atom,
KGdTe$_{4}$,0.005499999999999616,eV/atom,
CsSc$_{3}$(CuTe$_{3}$)$_{2}$,0.5930999999999997,eV/atom,
AlO$_{2}$,0.0,eV/atom,
SrHBrO,4.3167,eV/atom,
NbVP,0.0,eV/atom,
RbLi$_{2}$Ga$_{2}$(BO$_{3}$)$_{3}$,3.6654999999999998,eV/atom,
SnP$_{2}$(Cl$_{5}$O)$_{2}$,2.8617,eV/atom,
UGaNi,0.0,eV/atom,
YbIn$_{4}$Ni,0.0,eV/atom,
Sr$_{2}$Zn(HO)$_{6}$,2.7227,eV/atom,
Na$_{3}$NbOF$_{6}$,5.0991,eV/atom,
YbInAu,0.0,eV/atom,
BaLiSb,0.6946999999999997,eV/atom,
Cs$_{2}$NaAl(PO$_{4}$)$_{2}$,4.457400000000001,eV/atom,
KBCF$_{6}$,7.1091999999999995,eV/atom,
NdClO,4.766400000000001,eV/atom,
KCuTe,0.6037000000000003,eV/atom,
Hf(Te$_{4}$Cl$_{3}$)$_{2}$,0.9085000000000001,eV/atom,
KCrIO$_{6}$,2.6423,eV/atom,
CaSbAu,0,eV/atom,
LiGa$_{2}$Pt,0.0,eV/atom,
NiH$_{16}$(ClO$_{8}$)$_{2}$,4.1548,eV/atom,
Bi$_{6}$P$_{4}$PbO$_{20}$,3.3286,eV/atom,
CsClO$_{4}$,5.3068,eV/atom,
VH$_{24}$C$_{4}$N$_{4}$Cl$_{7}$,0.14590000000000003,eV/atom,
LiLa$_{5}$Ti$_{8}$O$_{24}$,2.0496,eV/atom,
PuIn,0.0,eV/atom,
Tl$_{2}$Au,0.0,eV/atom,
CoMo,0.0,eV/atom,
H$_{6}$SN$_{2}$,1.2711000000000001,eV/atom,
MnH$_{4}$(ClO)$_{2}$,4.3746,eV/atom,
Cu$_{6}$PbO$_{8}$,0.0,eV/atom,
Sm(NiGe)$_{3}$,0.0,eV/atom,
PBr$_{2}$N,3.0406,eV/atom,BrP1(Br)(Br)N=PNP(Br)(Br)(Br)N1
PBr$_{3}$O,3.0735,eV/atom,
HfSiOs,0.0,eV/atom,
Ti(Ag$_{4}$S$_{3}$)$_{2}$,0.6463000000000001,eV/atom,
Li$_{2}$PrSb$_{2}$,0.0,eV/atom,
MnSeO$_{4}$,1.2126,eV/atom,
Y$_{2}$AlGe$_{3}$,0.0,eV/atom,
Cr$_{2}$GeC,0.0,eV/atom,
SiPt,0.0,eV/atom,
LiCaF$_{3}$,6.7418,eV/atom,
PuGa$_{3}$,0.017699999999999605,eV/atom,
Ce$_{4}$As$_{3}$,0.0,eV/atom,
GdMgNi$_{4}$,0.0,eV/atom,
Fe$_{7}$C$_{3}$,0.0,eV/atom,
LiP(HO)$_{2}$,5.3164,eV/atom,
SrMnO$_{3}$,0.0,eV/atom,
NbSbRu,0.37490000000000023,eV/atom,
GdMgPt,0.006400000000000183,eV/atom,
RbNb(BO$_{3}$)$_{2}$,3.3773,eV/atom,
Cs$_{3}$BP$_{2}$,1.6973,eV/atom,
CdP$_{2}$Xe$_{5}$F$_{22}$,2.4129,eV/atom,
BaSe,1.2143000000000002,eV/atom,
Rb$_{2}$PdCl$_{6}$,1.2868,eV/atom,
Pr$_{2}$CrSe$_{4}$,0.0,eV/atom,
HoH$_{16}$C$_{2}$S$_{2}$NO$_{12}$,5.4777,eV/atom,
MgV$_{2}$O$_{5}$,2.3023,eV/atom,
Lu$_{5}$(Si$_{5}$Ir$_{2}$)$_{2}$,0.0,eV/atom,
Al$_{2}$Si$_{2}$H$_{4}$O$_{9}$,4.9007000000000005,eV/atom,
Ba$_{3}$YRu$_{2}$O$_{9}$,0.0,eV/atom,
Eu$_{3}$Ag$_{2}$,0.0,eV/atom,
Fe$_{2}$Sn,0.0,eV/atom,
Ce$_{4}$FeSe$_{6}$O,0.0,eV/atom,
TbB$_{2}$Rh$_{2}$C,0.0,eV/atom,
In$_{7}$Pd$_{3}$,0.0,eV/atom,
Ca$_{4}$In$_{3}$Au$_{10}$,0.0,eV/atom,
RbLi$_{3}$S$_{2}$O$_{9}$,0.48700000000000004,eV/atom,
Cd$_{2}$SO$_{6}$,0.2455,eV/atom,
EuMgH$_{4}$,0.17059999999999986,eV/atom,
K$_{2}$ScSi$_{4}$O$_{10}$F,4.7453,eV/atom,
La$_{2}$Ni$_{5}$B$_{4}$,0.0,eV/atom,
HfV$_{2}$,0.0,eV/atom,
La$_{2}$CuSnO$_{6}$,0.0,eV/atom,
SbTe$_{2}$F$_{6}$,0.9942999999999997,eV/atom,
DyH$_{2}$,0.0,eV/atom,
Ba$_{5}$Na$_{2}$Ru$_{3}$O$_{14}$,0.0,eV/atom,