formula,Property band_gap,Property band_gap units,Property SMILES
Ba$_{2}$Mn(PO$_{4}$)$_{2}$,4.1325,eV/atom,
Mn(GaS$_{2}$)$_{2}$,1.1795,eV/atom,
Er(GaFe)$_{6}$,0.0,eV/atom,
TcBr$_{4}$,0.6025,eV/atom,
UNiSn,0.0,eV/atom,
BaCu$_{2}$GeS$_{4}$,0.9664999999999999,eV/atom,
Cd(HO)$_{2}$,1.637,eV/atom,
NbP$_{2}$,0.1318999999999999,eV/atom,
PAuS$_{4}$,1.3165,eV/atom,
Ni$_{21}$(SnB$_{3}$)$_{2}$,0.026499999999998636,eV/atom,
Na$_{2}$ZnS$_{2}$,2.3678,eV/atom,
CO,6.1315,eV/atom,
Lu$_{2}$AlSi$_{2}$,0.0,eV/atom,
CsGdZnTe$_{3}$,0.9060999999999999,eV/atom,
Li$_{5}$In$_{4}$,0.0,eV/atom,
CaH$_{4}$SeO$_{6}$,3.8552,eV/atom,[Ca+2].O=[Se](=O)([O-])[O-].O.O
Tb$_{3}$Ga$_{5}$O$_{12}$,3.2791,eV/atom,
BaNiF$_{4}$,4.6572,eV/atom,
Cd(AsO$_{3}$)$_{2}$,1.9253,eV/atom,
AlAgO$_{2}$,1.4090999999999996,eV/atom,
Ga$_{3}$Bi$_{5}$Cl$_{12}$,1.8008,eV/atom,
ReH$_{8}$(I$_{3}$N)$_{2}$,0.7186000000000001,eV/atom,
CeInPd$_{2}$,0.0,eV/atom,
Ca$_{4}$Al$_{6}$O$_{13}$,3.6049999999999995,eV/atom,
YTi,0.0,eV/atom,
CaEu$_{2}$(CuO$_{3}$)$_{2}$,0.0,eV/atom,
Pu$_{2}$SnPt$_{2}$,0.0,eV/atom,
NaSr$_{4}$(BO$_{3}$)$_{3}$,3.9798,eV/atom,
SmCo$_{3}$NiB,0.0,eV/atom,
YAl$_{3}$,0.0,eV/atom,
ErAl$_{2}$Ni,0.0,eV/atom,
EuCdSn,0.0,eV/atom,
P$_{2}$W$_{5}$O$_{19}$,0.0,eV/atom,
MgH$_{6}$(NCl)$_{2}$,4.7741,eV/atom,
Sr$_{3}$Fe$_{2}$(ClO$_{2}$)$_{2}$,0.7927,eV/atom,
CaI$_{2}$,3.8971,eV/atom,
K$_{2}$GaAs$_{2}$,1.0115000000000003,eV/atom,
Tl$_{2}$Pd$_{3}$Se$_{2}$,0.0,eV/atom,
La$_{2}$PC,0.0,eV/atom,
TbCuAs$_{2}$,0.0,eV/atom,
PrSClO$_{4}$,4.7016,eV/atom,
CoNiH$_{24}$(SO$_{10}$)$_{2}$,3.2189,eV/atom,
Nb$_{3}$Se$_{5}$Cl$_{7}$,0.9467000000000001,eV/atom,
Ba$_{9}$Cu$_{7}$Cl$_{2}$O$_{15}$,0.0,eV/atom,
K$_{3}$ScV$_{2}$O$_{8}$,3.1504999999999996,eV/atom,
GdMg$_{3}$,0.0,eV/atom,
DyNi$_{4}$B,0.0,eV/atom,
SrSiN$_{2}$,2.9695,eV/atom,
Ca$_{2}$B$_{5}$H$_{2}$ClO$_{10}$,5.0988999999999995,eV/atom,
Lu$_{5}$Si$_{3}$B,0.0,eV/atom,
Sm$_{2}$(Ga$_{3}$Co)$_{3}$,0.0,eV/atom,
Sr$_{3}$AlSb$_{3}$,0.5371000000000006,eV/atom,
Fe$_{2}$N,0.0,eV/atom,
NbFe$_{2}$,0.0,eV/atom,
DyAl,0.0,eV/atom,
LaInPd$_{2}$,0.0,eV/atom,
HoCoC,0.0,eV/atom,
Tb(CoB)$_{2}$,0.0,eV/atom,
BaBClF$_{4}$,5.9708000000000006,eV/atom,
SrSn(PO$_{4}$)$_{2}$,3.6041,eV/atom,
RbTlF$_{4}$,2.7647,eV/atom,
BaTi$_{2}$O$_{5}$,2.1457,eV/atom,
Al$_{5}$HO$_{8}$,4.3283000000000005,eV/atom,
ErMg,0.0,eV/atom,
NaVO$_{3}$,3.0726,eV/atom,
Na$_{2}$Be$_{2}$(SiO$_{3}$)$_{3}$,4.5404,eV/atom,
K$_{2}$(SO$_{2}$)$_{3}$,3.5394,eV/atom,
Ba(NiAs)$_{2}$,0.0,eV/atom,
Mo$_{2}$P$_{2}$O$_{11}$,2.8121,eV/atom,
RbMgP(H$_{6}$O$_{5}$)$_{2}$,4.7947999999999995,eV/atom,
DyGaPt,0.0,eV/atom,
CaPt$_{5}$,0.0,eV/atom,
U$_{2}$(Ni$_{7}$B$_{2}$)$_{3}$,0.0,eV/atom,
LaSeCl,1.3339000000000008,eV/atom,
K$_{5}$FeO$_{4}$,1.9722000000000002,eV/atom,
Th(Al$_{5}$Fe)$_{2}$,0.0,eV/atom,
H$_{8}$PtCN$_{8}$,1.9094000000000002,eV/atom,[N-]=[N+]=N[Pt]N=[N+]=[N-].N.NC
Li$_{5}$AlO$_{4}$,4.795,eV/atom,
NaAlF$_{4}$,6.6735,eV/atom,
La$_{3}$ScBeS$_{7}$,0.9362999999999992,eV/atom,
La$_{2}$Ni$_{5}$C$_{3}$,0.0,eV/atom,
Sr$_{2}$CuClO$_{2}$,2.3842999999999996,eV/atom,
Ba$_{6}$Re$_{2}$N$_{6}$O,0.0,eV/atom,
Sr$_{2}$Cu$_{3}$(SO)$_{2}$,0.0,eV/atom,
Na$_{2}$BeSiO$_{4}$,2.9149,eV/atom,
VCl$_{3}$,0.0,eV/atom,
TaBiO$_{4}$,2.9731,eV/atom,
PbF$_{2}$,4.395099999999999,eV/atom,
Tl$_{2}$Fe$_{3}$S$_{4}$,0.0,eV/atom,
LuB$_{4}$,0.0,eV/atom,
CeSF,0.0,eV/atom,
K$_{3}$Yb(SO$_{4}$)$_{3}$,0.7217,eV/atom,
MgInNi$_{2}$,0.0,eV/atom,
CaSeO$_{3}$,4.2502,eV/atom,
TbAl$_{4}$,0.0,eV/atom,
Mg$_{7}$V,0.0,eV/atom,
Ag(W$_{3}$Br$_{7}$)$_{2}$,0.0,eV/atom,
TlP(HO$_{2}$)$_{2}$,3.9699000000000004,eV/atom,
PrAl$_{3}$(BO$_{3}$)$_{4}$,5.068600000000001,eV/atom,
Hg(PO$_{3}$)$_{2}$,2.5782000000000003,eV/atom,
Mn$_{2}$Sb$_{2}$O$_{7}$,0.30130000000000035,eV/atom,
SbSCl$_{9}$,1.6041,eV/atom,
V$_{2}$ZnO$_{6}$,2.436,eV/atom,
Rb$_{4}$YbI$_{6}$,3.6915,eV/atom,
Nb$_{2}$Cr,0.0,eV/atom,
Ca$_{2}$BN$_{2}$F,2.9278,eV/atom,
Cs$_{2}$NaCo(CN)$_{6}$,4.2881,eV/atom,
MgAl$_{2}$Cu,0.0,eV/atom,
Be$_{2}$Cu,0.0,eV/atom,
TiCl$_{3}$,0.04269999999999996,eV/atom,
Fe$_{4}$Pb(CO)$_{16}$,2.1198,eV/atom,
TiAu$_{4}$,0.0,eV/atom,
HoCrTeO$_{6}$,2.5880000000000005,eV/atom,
Pu$_{2}$Si$_{5}$Pt$_{3}$,0.0,eV/atom,
AgH$_{4}$WS$_{4}$N,1.7101,eV/atom,
Sr$_{2}$GdCu$_{2}$RuO$_{8}$,0.0,eV/atom,
DyNiO$_{3}$,0.0,eV/atom,
TlFeO$_{3}$,0.008999999999999453,eV/atom,
KTh$_{2}$V$_{3}$O$_{12}$,3.3008999999999995,eV/atom,
K$_{2}$Ti(SiO$_{3}$)$_{3}$,3.2039,eV/atom,
Ba$_{2}$Tl$_{2}$O$_{5}$,0.8080000000000003,eV/atom,
CsZr$_{6}$BI$_{14}$,0.7638000000000003,eV/atom,
Na$_{2}$CuH$_{6}$C$_{2}$O$_{9}$,0.6966000000000001,eV/atom,
Li$_{3}$Sb,0.6960999999999999,eV/atom,
Cd(GaO$_{2}$)$_{2}$,1.5793000000000001,eV/atom,
Na$_{3}$AlP$_{2}$H$_{2}$O$_{9}$,4.4885,eV/atom,
K$_{2}$TeSe$_{3}$,1.7896,eV/atom,
NaTmS$_{2}$,2.3621,eV/atom,
Lu(FeSn)$_{6}$,0.0,eV/atom,
Li$_{4}$Be$_{3}$As$_{3}$ClO$_{12}$,4.5888,eV/atom,
K$_{2}$CeNb$_{5}$O$_{15}$,0.0,eV/atom,
Cu$_{2}$NO$_{6}$,0.0,eV/atom,
Ag$_{2}$Mo$_{2}$O$_{7}$,1.9881999999999997,eV/atom,
Cs$_{2}$SnSe$_{3}$,1.716,eV/atom,
P$_{4}$Os,1.3637000000000006,eV/atom,
InH$_{9}$(NCl)$_{3}$,3.7682,eV/atom,
Zr$_{5}$Sb$_{3}$,0.0,eV/atom,
Sr$_{2}$VO$_{4}$,1.5295999999999998,eV/atom,
SrGd$_{2}$Sc$_{2}$O$_{7}$,2.5645,eV/atom,
H$_{4}$INO$_{4}$,2.4863,eV/atom,
Zr$_{2}$TlC,0.0,eV/atom,
Sr$_{2}$UMn,0.0,eV/atom,
Zn$_{8}$Cu$_{5}$,0.0,eV/atom,
YTe$_{2}$,0.0,eV/atom,
Lu(AlGe)$_{2}$,0.0,eV/atom,
ZnCu$_{2}$SiS$_{4}$,1.2780999999999993,eV/atom,
Ba$_{6}$Mg$_{23}$,0.0,eV/atom,
MgMn$_{3}$(CuO$_{4}$)$_{2}$,0.0,eV/atom,
KMnF$_{3}$,2.6633,eV/atom,
GeSe$_{2}$,1.5188000000000001,eV/atom,
Nb$_{4}$CrS$_{8}$,0.0,eV/atom,
KGaO$_{2}$,3.0499,eV/atom,
K$_{2}$CaH$_{8}$(N$_{3}$O)$_{4}$,4.1829,eV/atom,
H$_{5}$C$_{2}$NO$_{4}$,3.0878,eV/atom,O=C([O-])C(=O)O.[NH4+]
Na$_{3}$Hg,0.0,eV/atom,
KFe(MoO$_{4}$)$_{2}$,2.5929,eV/atom,
NaGdS$_{2}$,1.8266999999999998,eV/atom,
Hg,0.09589999999999999,eV/atom,
Ta$_{2}$Al,0.0,eV/atom,
Ta(CoTe)$_{2}$,0.0,eV/atom,
Sc$_{2}$P$_{3}$(HO$_{3}$)$_{3}$,4.6108,eV/atom,
Tl$_{2}$SiHgSe$_{4}$,1.3713000000000002,eV/atom,
Rb$_{3}$B$_{12}$H$_{12}$Cl,4.9513,eV/atom,
Ti$_{4}$P$_{6}$PbO$_{24}$,2.7893,eV/atom,
Pr$_{2}$Tl,0.0,eV/atom,
BaY$_{2}$ZnO$_{5}$,3.0989,eV/atom,
Nd$_{2}$SO$_{6}$,5.1594999999999995,eV/atom,
CuAgPO$_{4}$,0.0,eV/atom,
LuSeO$_{3}$F,4.2845,eV/atom,
Eu(ZnP)$_{2}$,0.0,eV/atom,
PrFeGe$_{3}$,0.0,eV/atom,
UNi$_{2}$B$_{2}$C,0.0,eV/atom,
Sm$_{4}$Mg$_{3}$Co$_{2}$,0.0,eV/atom,
GdTe$_{2}$ClO$_{5}$,0.36430000000000007,eV/atom,
BaMnO$_{3}$,0.8952999999999998,eV/atom,
RbEu$_{2}$I$_{5}$,1.2759,eV/atom,
NbAlBr$_{8}$,1.5566,eV/atom,
PrFeO$_{3}$,1.4466999999999999,eV/atom,
YAlO$_{3}$,5.5402,eV/atom,
Cs$_{7}$Fe$_{4}$F$_{15}$,3.431,eV/atom,
KLaSi(CN$_{2}$)$_{4}$,3.6775999999999995,eV/atom,
Al$_{2}$CdTe$_{4}$,1.6245000000000003,eV/atom,
Hg$_{6}$S$_{4}$Br$_{3}$Cl,1.5348000000000002,eV/atom,
Ba$_{6}$Ru$_{2}$Pt(ClO$_{6}$)$_{2}$,0.6919,eV/atom,
KAgCO$_{3}$,2.2109,eV/atom,
MnH$_{6}$SO$_{6}$,4.4475,eV/atom,
TmMn$_{6}$(GaSn$_{2}$)$_{2}$,0.0,eV/atom,
LuH$_{2}$ClO$_{2}$,4.8104,eV/atom,
Rb$_{2}$Zr$_{3}$OF$_{12}$,5.3336,eV/atom,
CaTi$_{2}$(HO$_{3}$)$_{2}$,3.0705999999999998,eV/atom,
ReSi,0.0,eV/atom,
MgAlBO$_{4}$,6.0077,eV/atom,
BaSiO$_{3}$,3.037699999999999,eV/atom,
LiPrSn$_{2}$,0.0,eV/atom,
Mn(IO$_{3}$)$_{2}$,2.5617,eV/atom,
SrV$_{4}$(Bi$_{3}$O$_{10}$)$_{2}$,2.8851999999999998,eV/atom,
Ca(AuF$_{6}$)$_{2}$,1.5298999999999998,eV/atom,
LiGa$_{2}$Pd,0.0,eV/atom,
Ba$_{3}$Au$_{2}$,0.0,eV/atom,
TlCl,2.5364999999999998,eV/atom,
Ba(AsPd)$_{2}$,0.0,eV/atom,
La$_{2}$ReO$_{5}$,1.0111999999999997,eV/atom,
KMgAs,1.1621,eV/atom,
Sr(AgGe)$_{2}$,0.0,eV/atom,
NdB$_{2}$Ir$_{3}$,0.0,eV/atom,
TaNO,2.2446,eV/atom,
Al(Si$_{2}$O$_{5}$)$_{2}$,0.0612,eV/atom,
Sr$_{2}$CuGe$_{2}$O$_{7}$,0.0,eV/atom,
Nd$_{2}$Al,0.0,eV/atom,
RbCdC$_{3}$(SN)$_{3}$,3.208,eV/atom,
BaPS$_{3}$,3.1048000000000004,eV/atom,
LuGa$_{2}$Pd,0.0,eV/atom,
BaLuCo$_{4}$O$_{7}$,0.1759999999999997,eV/atom,
BP$_{2}$N$_{2}$Cl$_{7}$,3.0653,eV/atom,
Cs$_{2}$V$_{5}$O$_{13}$,1.5096,eV/atom,
K$_{2}$OsO$_{6}$,0.0,eV/atom,
BeSe,0.0,eV/atom,
Mg$_{2}$Al$_{5}$Cu$_{6}$,0.0,eV/atom,
Cu$_{3}$P$_{4}$S$_{4}$I$_{3}$,1.6301999999999999,eV/atom,
Ca$_{2}$B$_{2}$O$_{5}$,4.692,eV/atom,
V$_{2}$N,0.0,eV/atom,
Cu$_{12}$Sb$_{4}$S$_{13}$,0.0,eV/atom,
CrRh$_{3}$,0.0,eV/atom,
CeTlPd,0.0,eV/atom,
SmIn$_{2}$Ir,0.0,eV/atom,
UIN,0.0,eV/atom,
La(AlBr$_{4}$)$_{3}$,2.6083,eV/atom,
CsLi$_{2}$BS$_{3}$,3.0936,eV/atom,
TlPd$_{5}$Se,0.0,eV/atom,
BiPd$_{2}$Pb,0.0,eV/atom,
Na$_{10}$YbSn$_{12}$,0.6806000000000001,eV/atom,
Nb$_{2}$N,0.0,eV/atom,
SrCdP$_{2}$O$_{7}$,3.7032,eV/atom,
YAl$_{3}$Ni$_{2}$,0.0,eV/atom,
SrCrSn(PO$_{4}$)$_{3}$,3.0852999999999993,eV/atom,
NaSr$_{3}$TaO$_{6}$,3.8787,eV/atom,
BeAl$_{2}$O$_{4}$,6.118099999999999,eV/atom,
Sr$_{2}$VClO$_{4}$,3.7723,eV/atom,
ThHg$_{3}$,0.0,eV/atom,
CuH$_{12}$N$_{2}$(OF$_{2}$)$_{2}$,0.14439999999999997,eV/atom,
ErAlPt,0.0,eV/atom,
Ag$_{7}$P$_{3}$S$_{11}$,1.3805999999999998,eV/atom,
FeSb$_{4}$C$_{6}$(O$_{3}$F$_{11}$)$_{2}$,4.461,eV/atom,
MnCoTe,0.0,eV/atom,
Ta$_{3}$Sb,0.0,eV/atom,
Rb$_{3}$Cu$_{2}$(BiS$_{2}$)$_{5}$,0.5187000000000004,eV/atom,
Cs$_{4}$Cu$_{3}$F$_{10}$,0.11959999999999993,eV/atom,
Ti$_{3}$In$_{3}$Rh$_{2}$,0.0,eV/atom,
NaNi(PO$_{3}$)$_{3}$,4.7105,eV/atom,
TiCo$_{2}$Si,0.0,eV/atom,
Ba$_{3}$Nb$_{2}$CoO$_{9}$,1.5003000000000006,eV/atom,
Fe$_{2}$Te$_{4}$H$_{3}$ClO$_{12}$,2.0646,eV/atom,
Na$_{6}$S$_{2}$ClO$_{8}$F,4.7796,eV/atom,
GdSn$_{3}$,0.0,eV/atom,
ScCdNi$_{4}$,0.0,eV/atom,
RuS$_{2}$,0.6675999999999993,eV/atom,
Cr$_{3}$CuO$_{8}$,0.49629999999999974,eV/atom,
H$_{8}$S(NO$_{2}$)$_{2}$,4.9871,eV/atom,
NaFeBP$_{2}$H$_{3}$O$_{10}$,2.6123,eV/atom,
Cs$_{2}$AgF$_{4}$,0.0,eV/atom,
Os$_{6}$C$_{19}$O$_{20}$,1.7679,eV/atom,
TbAl$_{9}$(Fe$_{2}$Si$_{3}$)$_{2}$,0.0,eV/atom,
In$_{2}$Si(AgSe$_{3}$)$_{2}$,0.4724999999999997,eV/atom,
Cu$_{2}$P$_{8}$Se$_{3}$I$_{2}$,1.3297999999999996,eV/atom,
PBr$_{5}$,1.6183,eV/atom,BrP(Br)(Br)(Br)Br
Ca$_{4}$Al$_{6}$SO$_{16}$,4.4190000000000005,eV/atom,
K$_{2}$Sr$_{3}$Mn$_{2}$(P$_{2}$O$_{7}$)$_{3}$,4.2810999999999995,eV/atom,
Hf$_{2}$P$_{2}$O$_{9}$,4.9036,eV/atom,
Ho$_{2}$Ge$_{2}$O$_{7}$,3.7385,eV/atom,
CaZn(CO$_{3}$)$_{2}$,3.9728999999999997,eV/atom,
Rb(BH)$_{6}$,5.530799999999999,eV/atom,
BaSb$_{2}$Pd,0.0,eV/atom,
Eu$_{2}$InPd$_{2}$,0.0,eV/atom,
Dy$_{2}$Fe$_{14}$C,0.0,eV/atom,
UBr$_{3}$,0.0,eV/atom,
Zr(PO$_{3}$)$_{4}$,4.1158,eV/atom,
TlCrO$_{4}$,1.8656,eV/atom,
CeTl$_{5}$Ni$_{2}$(NO$_{2}$)$_{12}$,0.0,eV/atom,
ErAg,0.0,eV/atom,
ReI$_{3}$,0.9469999999999998,eV/atom,
Ba$_{3}$YbRu$_{2}$O$_{9}$,0.14860000000000007,eV/atom,
K$_{2}$B$_{2}$S$_{7}$,2.4970999999999997,eV/atom,
CuHg$_{3}$As$_{2}$Br$_{3}$,0.09450000000000003,eV/atom,
KFe$_{2}$S$_{3}$,0.0,eV/atom,
Ta$_{2}$Se,0.0,eV/atom,
NaAsO$_{3}$,2.8378,eV/atom,
KNaMn(Si$_{2}$O$_{5}$)$_{2}$,3.0188000000000006,eV/atom,
FeCu$_{2}$(CN)$_{6}$,0.0,eV/atom,
Na$_{3}$Ca$_{2}$TaO$_{6}$,4.244,eV/atom,
Dy$_{2}$Al$_{3}$Si$_{2}$,0.0,eV/atom,
NaNdS$_{2}$,2.2045000000000003,eV/atom,
SrMgF$_{4}$,6.2322999999999995,eV/atom,
Sm$_{2}$Co$_{17}$,0.0,eV/atom,
La$_{3}$(NbN$_{3}$)$_{2}$,0.0,eV/atom,
NbO$_{2}$,0.16549999999999976,eV/atom,
ErMnGe,0.019199999999999662,eV/atom,
AlTlSe$_{2}$,0.5872999999999999,eV/atom,
CsNpCuS$_{3}$,0.0,eV/atom,
Ni$_{2}$Hg$_{2}$SF$_{6}$,2.0223999999999998,eV/atom,
Cs$_{2}$Na$_{2}$B$_{10}$O$_{17}$,4.7124999999999995,eV/atom,
S,2.6076,eV/atom,
HfPt,0.0,eV/atom,
Tl$_{2}$Ge$_{2}$S$_{5}$,2.0942,eV/atom,
Fe$_{3}$H$_{4}$(OF$_{4}$)$_{2}$,0.9575,eV/atom,
PrPd,0.0,eV/atom,
Ta$_{6}$Fe$_{7}$,0.0,eV/atom,
K(FeS)$_{2}$,0.0,eV/atom,
GdCu$_{5}$,0.0,eV/atom,
La$_{3}$MoO$_{7}$,0.023600000000000065,eV/atom,
ScPO$_{4}$,4.5188999999999995,eV/atom,
K$_{3}$GaO$_{3}$,2.621,eV/atom,
SrB$_{8}$O$_{13}$,5.5745000000000005,eV/atom,
AsPO$_{5}$,2.0017,eV/atom,
LuSBr,2.7179,eV/atom,
KAlP$_{2}$O$_{7}$,5.2966999999999995,eV/atom,
Tm$_{2}$FeC$_{4}$,0.0,eV/atom,
Lu$_{2}$Si$_{5}$Ni$_{3}$,0.0,eV/atom,
Sr(Ag$_{3}$O$_{2}$)$_{2}$,0.8503000000000003,eV/atom,
Yb(CuSi)$_{2}$,0.0,eV/atom,
Sr$_{2}$YTaO$_{6}$,3.8449999999999998,eV/atom,
Ti$_{2}$CoGe,0.0,eV/atom,
PrAl$_{2}$,0.0,eV/atom,
TlHCO$_{2}$,3.4859,eV/atom,
AgI,0.9588999999999999,eV/atom,
Te$_{2}$O$_{3}$F$_{2}$,3.3825000000000003,eV/atom,
V$_{3}$PC,0.0,eV/atom,
Sc$_{2}$FeB$_{2}$Rh$_{5}$,0.05600000000000005,eV/atom,
Yb$_{2}$FeS$_{4}$,0,eV/atom,
BaNiSn$_{3}$,0.0,eV/atom,
Y$_{4}$C$_{5}$,0.0,eV/atom,
CsHF$_{2}$,6.5186,eV/atom,
MgH$_{6}$(CO$_{3}$)$_{2}$,4.9673,eV/atom,[Mg+2].O=C[O-].O=C[O-].O.O
Na$_{3}$Ca(BO$_{2}$)$_{5}$,4.556699999999999,eV/atom,
BaP$_{2}$PbO$_{7}$,4.3622,eV/atom,
ZrSnRh,0.0,eV/atom,
YbMoClO$_{4}$,0.0,eV/atom,
CaV$_{4}$O$_{9}$,2.4882000000000004,eV/atom,
BiPt,0.0,eV/atom,
Al$_{2}$HgSe$_{4}$,0.4013,eV/atom,
Na$_{5}$Y(MoO$_{4}$)$_{4}$,3.9476000000000004,eV/atom,
Er$_{2}$Cu(B$_{2}$O$_{5}$)$_{2}$,0.6619000000000002,eV/atom,
K$_{3}$NbAs$_{2}$O$_{9}$,3.1394,eV/atom,
SmTiClO$_{3}$,3.2110000000000003,eV/atom,
Zn$_{3}$Ga$_{4}$Pd$_{7}$,0.0,eV/atom,
Gd$_{2}$O$_{3}$,2.9035,eV/atom,
Sm(BO$_{2}$)$_{3}$,5.3245000000000005,eV/atom,
BaYFe$_{2}$O$_{5}$,0.8812999999999995,eV/atom,
Al$_{4}$C$_{3}$,1.3154000000000003,eV/atom,
BaTiSe$_{3}$,0.0,eV/atom,
Rb$_{2}$NaMoF$_{6}$,2.1086,eV/atom,
InGaO$_{3}$,1.3419999999999996,eV/atom,
K$_{2}$Mn(SeO$_{3}$)$_{2}$,3.6292000000000004,eV/atom,
SbC(Cl$_{2}$O)$_{2}$,2.1067,eV/atom,
K$_{2}$RbPdF$_{5}$,2.2313,eV/atom,
Ca(SiPd)$_{2}$,0.0,eV/atom,
Mg$_{3}$(PO$_{4}$)$_{2}$,5.106400000000001,eV/atom,
YSiRh$_{2}$,0.0,eV/atom,
BaLaCuS$_{3}$,1.1070000000000002,eV/atom,
CeGaPd,0.0,eV/atom,
V$_{2}$NiO$_{7}$,0.5005,eV/atom,
CdH$_{2}$(SO$_{4}$)$_{2}$,4.189,eV/atom,
CsCaBr$_{3}$,4.3924,eV/atom,
CsMnCr(CN)$_{6}$,0.1422,eV/atom,
K$_{2}$Ca(CO$_{3}$)$_{2}$,4.3436,eV/atom,
Cd$_{2}$BiAsO$_{6}$,2.0527999999999995,eV/atom,
Sr$_{9}$TmV$_{7}$O$_{28}$,3.5778,eV/atom,
TmGe$_{2}$,0.0,eV/atom,
Li$_{3}$Ti$_{4}$O$_{8}$,0.0,eV/atom,
MnCu(Te$_{2}$O$_{5}$)$_{2}$,0.6566000000000001,eV/atom,
KNa$_{3}$WO$_{5}$,3.593,eV/atom,
RbSr$_{2}$Nb$_{3}$O$_{10}$,1.4646,eV/atom,
KCdSb,0.0,eV/atom,
GdTlPd,0.016300000000000203,eV/atom,
Y,0.0,eV/atom,
TbIn$_{5}$Rh,0.0,eV/atom,
NdGa$_{3}$(BO$_{3}$)$_{4}$,4.3389999999999995,eV/atom,
PrAl$_{3}$Ni$_{2}$,0.0,eV/atom,
Ho$_{3}$(In$_{2}$Co)$_{2}$,0.0,eV/atom,
NpSe$_{3}$,0.0,eV/atom,
NbXeF$_{11}$,2.648,eV/atom,
Mn$_{4}$Nb$_{7}$Ge$_{8}$,0.010699999999999932,eV/atom,
Zr$_{2}$NiP,0.0,eV/atom,
Dy$_{2}$Au,0.0,eV/atom,
Ca$_{2}$V$_{2}$O$_{7}$,3.0528,eV/atom,
Cs$_{2}$NaScF$_{6}$,6.799099999999999,eV/atom,
Pr$_{2}$BiO$_{2}$,0.0,eV/atom,
InAg(PSe$_{3}$)$_{2}$,0.6040999999999999,eV/atom,
InCo$_{3}$(CO)$_{12}$,2.6591,eV/atom,
HfP,0.0,eV/atom,
TmSe$_{2}$,0.0,eV/atom,
DyTiGe,0.0,eV/atom,
Na$_{2}$TiFe(PO$_{4}$)$_{3}$,2.4985,eV/atom,
ScAl$_{3}$,0.0,eV/atom,
Th$_{2}$Se$_{5}$,0.7171000000000003,eV/atom,
Zn$_{2}$P$_{2}$H$_{12}$O$_{11}$,4.9444,eV/atom,
SrGa$_{2}$(GeO$_{4}$)$_{2}$,3.0761,eV/atom,
MgH$_{2}$,2.7285000000000004,eV/atom,
Hf$_{2}$Si$_{4}$Ru$_{3}$,0.0,eV/atom,
NbS,0.0,eV/atom,
Ta$_{4}$Te$_{16}$Pd$_{3}$,0.0,eV/atom,
Lu$_{2}$ZnS$_{4}$,2.3855999999999997,eV/atom,
Re$_{2}$Cl$_{5}$O$_{4}$,0.6223000000000001,eV/atom,
ZrCuGe,0.0,eV/atom,
Ti$_{2}$MnSn,0.0,eV/atom,
K$_{2}$Hg$_{2}$SCl$_{4}$O$_{3}$,2.204,eV/atom,
KNbSi$_{2}$O$_{7}$,3.431,eV/atom,
LiP,0.8094999999999999,eV/atom,
TmCl$_{3}$,4.917,eV/atom,
K$_{2}$MnH$_{8}$(SO$_{6}$)$_{2}$,4.6359,eV/atom,
Ge$_{2}$RuC$_{4}$(Cl$_{3}$O$_{2}$)$_{2}$,3.3452,eV/atom,
CaCuSb,0.0,eV/atom,
Cr$_{2}$FeO$_{4}$,1.3571,eV/atom,
SbH$_{12}$C$_{5}$N$_{3}$Cl$_{4}$,1.3255,eV/atom,
CaU(MoO$_{4}$)$_{4}$,2.0244,eV/atom,
La$_{2}$Pd$_{2}$Pb,0.0,eV/atom,
SiPt$_{5}$Pb,0.0,eV/atom,
H$_{16}$PdC$_{4}$S$_{4}$(N$_{4}$Cl)$_{2}$,2.0412,eV/atom,
NaV$_{2}$O$_{5}$,1.3254,eV/atom,
H$_{8}$Se(NO$_{2}$)$_{2}$,3.6061,eV/atom,
LuRh$_{2}$,0.0,eV/atom,
DyZnPd,0.0,eV/atom,
Li(CoGe)$_{6}$,0.0,eV/atom,
KV$_{2}$PO$_{8}$,2.2965999999999998,eV/atom,
Sm$_{3}$Si$_{2}$Cl$_{5}$O$_{6}$,4.6078,eV/atom,
Al$_{2}$H$_{12}$(SeO$_{5}$)$_{3}$,4.6404,eV/atom,
AlAu,0.0,eV/atom,
Cs$_{2}$AgF$_{4}$,0.1767,eV/atom,
TbNiGe$_{2}$,0.0,eV/atom,
Er$_{2}$SnAu$_{2}$,0.0,eV/atom,
WBr$_{5}$,0.0,eV/atom,
SnP$_{4}$H$_{8}$N$_{2}$O$_{13}$,3.7786,eV/atom,
CuH$_{12}$Se(NO)$_{4}$,0.6238999999999999,eV/atom,
Mn$_{8}$Cl$_{3}$O$_{10}$,0.31309999999999993,eV/atom,
Cs$_{2}$LiCr(CN)$_{6}$,1.8904,eV/atom,
Ca$_{2}$RuO$_{4}$,0.0,eV/atom,
CrBiO$_{3}$,1.8396999999999997,eV/atom,
Ba$_{6}$Na$_{2}$Nb$_{2}$P$_{2}$O$_{17}$,3.0126000000000004,eV/atom,
Li$_{4}$Mo$_{5}$O$_{17}$,3.0662,eV/atom,
RbNb$_{4}$Cl$_{11}$,0.44499999999999984,eV/atom,
NdSi,0.0,eV/atom,
K$_{4}$Ba$_{2}$N$_{7}$O$_{16}$,0.37959999999999994,eV/atom,
Mn$_{2}$Fe(CN)$_{6}$,2.0169,eV/atom,
Rb$_{2}$Cr$_{3}$O$_{10}$,2.0282,eV/atom,
LiNdBO$_{4}$,0.34609999999999985,eV/atom,
Eu(AlSe$_{2}$)$_{2}$,0.8985999999999996,eV/atom,
EuBi$_{2}$ClO$_{4}$,0.0,eV/atom,
BH$_{4}$N,5.9404,eV/atom,
K$_{3}$Np(H$_{3}$O$_{4}$)$_{2}$,1.4329,eV/atom,
ScNbO$_{4}$,3.3047000000000004,eV/atom,
Ca$_{2}$B$_{4}$Rh$_{5}$,0.0,eV/atom,
UFeSe$_{3}$,0.0,eV/atom,
CeC$_{2}$,0.0,eV/atom,
FeSeN,0.0,eV/atom,
Sr$_{2}$NdBiO$_{6}$,1.7018,eV/atom,
MnF$_{4}$,1.3254000000000001,eV/atom,
TbScGe,0.0,eV/atom,
K$_{2}$Mg$_{2}$Si$_{2}$O$_{7}$,4.9573,eV/atom,
K$_{3}$HPdS$_{2}$(ClO$_{3}$)$_{2}$,2.1594,eV/atom,
Ni(SO$_{6}$)$_{2}$,0.8414999999999999,eV/atom,[Ni+2].O=S(=O)([O-])S(=O)(=O)[O-].O.O.O.O.O.O
RbSb$_{3}$Se$_{5}$,1.2305000000000001,eV/atom,
LiCe$_{2}$HO$_{3}$,0.0,eV/atom,
MnTlI$_{3}$,1.3903999999999996,eV/atom,
Y(BIr)$_{2}$,0.0,eV/atom,
CoH$_{20}$Se$_{2}$(NO$_{7}$)$_{2}$,2.7533999999999996,eV/atom,
Na$_{4}$TeH$_{10}$(SeO$_{8}$)$_{2}$,0.01430000000000009,eV/atom,
Er$_{3}$In$_{5}$,0.0,eV/atom,
Na$_{8}$Hf(MoO$_{4}$)$_{6}$,4.048,eV/atom,
Cr$_{2}$AgTe$_{4}$,0.0,eV/atom,
NaCa(PO$_{3}$)$_{3}$,5.4403999999999995,eV/atom,
FeTeO$_{3}$F,2.2474000000000003,eV/atom,
GdCo$_{5}$,0.0,eV/atom,
Na$_{7}$Al$_{3}$O$_{8}$,3.1165000000000003,eV/atom,
WO$_{5}$,0.0,eV/atom,
B$_{5}$H$_{11}$,4.7463,eV/atom,
Ga(MoS$_{2}$)$_{4}$,0.17989999999999995,eV/atom,
Na$_{2}$Ge(S$_{2}$O$_{7}$)$_{3}$,4.003,eV/atom,
LuGa$_{2}$,0.0,eV/atom,
TmMgSn,0.0,eV/atom,
EuPb,0.0,eV/atom,
TlRe$_{3}$(Se$_{2}$Cl)$_{2}$,1.5063000000000004,eV/atom,
Na$_{4}$CO$_{4}$,2.0001999999999995,eV/atom,
H$_{2}$,7.4788,eV/atom,
BH$_{5}$CSN$_{2}$,3.9122,eV/atom,
U(PS$_{3}$)$_{2}$,0.0,eV/atom,[U+6].[U+6].[U+6].[U+6].S=P([S-])([S-])OP(=S)([S-])[S-].S=P([S-])([S-])OP(=S)([S-])[S-].S=P([S-])([S-])OP(=S)([S-])[S-].S=P([S-])([S-])OP(=S)([S-])[S-].S=P([S-])([S-])OP(=S)([S-])[S-].S=P([S-])([S-])OP(=S)([S-])[S-]
K$_{2}$UAs$_{2}$O$_{9}$,2.4232,eV/atom,
Eu$_{2}$Zn$_{2}$As$_{3}$,0.0,eV/atom,
VCu$_{3}$Te$_{4}$,0.5731999999999999,eV/atom,
Rb$_{3}$AlO$_{3}$,2.6513999999999998,eV/atom,
ThSnI$_{6}$,1.9875999999999998,eV/atom,
DyB$_{2}$Rh$_{2}$C,0.0,eV/atom,
CdNF$_{3}$,0.7999999999999999,eV/atom,
Ba$_{3}$Lu$_{2}$Zn$_{5}$O$_{11}$,2.2892,eV/atom,
SrAlH$_{3}$,0.07439999999999997,eV/atom,
Te$_{3}$SeO$_{8}$,2.6440999999999995,eV/atom,
Cs$_{4}$CO$_{4}$,1.8413000000000002,eV/atom,
Ce$_{2}$MgCu$_{2}$,0.004700000000000593,eV/atom,
Mn$_{4}$Si$_{4}$SnB$_{2}$(HO$_{9}$)$_{2}$,2.7422,eV/atom,
K$_{3}$(FeO$_{2}$)$_{2}$,0.0,eV/atom,
YbF$_{3}$,0.0,eV/atom,
SrNiF$_{6}$,0.37240000000000006,eV/atom,
KCr$_{3}$O$_{8}$,1.8261,eV/atom,
PrAs$_{2}$,0.17680000000000007,eV/atom,
NiPbO$_{3}$,0.0,eV/atom,
ErHCl,0.0,eV/atom,
Sr$_{2}$NiWO$_{6}$,3.2676,eV/atom,
Mg$_{2}$VB$_{2}$Ir$_{5}$,0.0,eV/atom,
CeBPd$_{3}$,0.0,eV/atom,
Zr$_{3}$Te,0.0,eV/atom,
La$_{2}$(GeO$_{3}$)$_{3}$,3.0791000000000004,eV/atom,
BaC$_{2}$,2.1132,eV/atom,
Hg$_{3}$(ClO)$_{2}$,0.6363,eV/atom,
SnH$_{21}$C$_{7}$S$_{4}$N(O$_{3}$F)$_{2}$,4.7629,eV/atom,
Ho(SiRu)$_{2}$,0.0,eV/atom,
H$_{10}$C$_{3}$NClO$_{4}$,5.6241,eV/atom,
NaCaH$_{3}$,3.3097000000000003,eV/atom,
AuN$_{5}$O$_{14}$,1.9901,eV/atom,
Cs$_{2}$Hg$_{3}$I$_{8}$O,0.0746,eV/atom,
LaNO$_{4}$,1.3265000000000002,eV/atom,
Nb$_{2}$VSe$_{4}$,0.0,eV/atom,
Re$_{2}$NiO$_{8}$,3.8913,eV/atom,
Np$_{5}$Ge$_{4}$,0.0,eV/atom,
Pr$_{2}$Fe$_{17}$C$_{3}$,0.0,eV/atom,
Na$_{2}$SO$_{4}$,4.9811000000000005,eV/atom,
Sr(PPd)$_{2}$,0.0,eV/atom,
LaNb$_{2}$CuBrO$_{7}$,0.0,eV/atom,
BaMoO$_{3}$,0,eV/atom,
K$_{6}$CoSe$_{4}$,0.42710000000000004,eV/atom,
Li$_{3}$TaO$_{4}$,4.5218,eV/atom,
Zn$_{2}$Cu(AsO$_{4}$)$_{2}$,0.4821000000000002,eV/atom,
DySnAu,0.0,eV/atom,
Nd(SiPd)$_{2}$,0.0,eV/atom,
Ag$_{3}$PO$_{4}$,0.1745000000000001,eV/atom,
LaNiC$_{2}$,0.0,eV/atom,
K$_{4}$CO$_{4}$,2.0349000000000004,eV/atom,