formula,Property band_gap,Property band_gap units,Property SMILES
Sr$_{2}$RhF$_{7}$,1.9751,eV/atom,
K$_{3}$NaCr$_{2}$O$_{8}$,3.0589000000000004,eV/atom,
PrSi$_{2}$Mo$_{2}$C,0.0,eV/atom,
CeNi$_{4}$B,0.0,eV/atom,
Mg(BrO)$_{2}$,0.0,eV/atom,
Er(MnSi)$_{2}$,0.0,eV/atom,
Ne,11.7236,eV/atom,[Ne]
Cs$_{2}$LiInCl$_{6}$,3.2276,eV/atom,
TaCoSi,0.0,eV/atom,
Pr(Ge$_{3}$Pt)$_{4}$,0.0,eV/atom,
SiO$_{2}$,5.6387,eV/atom,
MgF$_{2}$,6.8537,eV/atom,
Er$_{2}$MnC$_{4}$,0,eV/atom,
KGdTe$_{2}$,0.7134999999999998,eV/atom,
GaCl$_{3}$,4.2434,eV/atom,
Tl$_{2}$TeI$_{6}$,1.6797,eV/atom,
LaTa$_{3}$O$_{9}$,2.7517000000000005,eV/atom,
Sc$_{2}$GaC,0.0,eV/atom,
Sr(Ni$_{2}$Sn)$_{2}$,0.0,eV/atom,
SrLi$_{2}$Ta$_{2}$O$_{7}$,2.2704000000000004,eV/atom,
B$_{5}$(H$_{2}$N)$_{2}$,2.8741000000000003,eV/atom,
Sr(PRu)$_{2}$,0.0,eV/atom,
TmAl$_{7}$Au$_{3}$,0.0,eV/atom,
TaN,0.0,eV/atom,
GaHg$_{2}$SbCl$_{4}$,0.8072,eV/atom,
DyGeRu,0.0,eV/atom,
Zr$_{3}$Rh$_{5}$,0.0,eV/atom,
Sr$_{3}$DyRhO$_{6}$,2.1402000000000005,eV/atom,
GdFe$_{3}$(BO$_{3}$)$_{4}$,2.2612,eV/atom,
U(SiIr)$_{2}$,0.0,eV/atom,
WO$_{3}$,1.1455,eV/atom,
CdH$_{2}$SeO$_{4}$,3.7960000000000003,eV/atom,
ThGeS,0.0,eV/atom,
Si$_{19}$Te$_{8}$,0.8865999999999996,eV/atom,
CoSb$_{2}$S$_{2}$(OF$_{3}$)$_{4}$,2.9027000000000003,eV/atom,
Cs$_{3}$Li$_{4}$(BO$_{2}$)$_{7}$,4.5217,eV/atom,
SrSi,0.0,eV/atom,
CrH$_{15}$S$_{2}$O$_{15}$,3.3327999999999998,eV/atom,
BaNiS$_{2}$,0.0,eV/atom,
LiCr(SiO$_{3}$)$_{2}$,3.0382,eV/atom,
CrH$_{12}$(ClO$_{2}$)$_{3}$,3.0458999999999996,eV/atom,
SiO$_{2}$,5.610799999999999,eV/atom,
TbCdF$_{6}$,0.0,eV/atom,
TeAs(ClF$_{2}$)$_{3}$,3.9734000000000003,eV/atom,
KRbS,2.2214,eV/atom,
Rb$_{2}$U(SiO$_{3}$)$_{4}$,2.5082999999999998,eV/atom,
Li$_{12}$Al$_{3}$Si$_{4}$,0.0,eV/atom,
Eu(CoP)$_{2}$,0.0,eV/atom,
PrB$_{6}$,0.0,eV/atom,
Y$_{3}$BrO$_{4}$,4.2046,eV/atom,
NiHO$_{2}$,0.17110000000000003,eV/atom,
AlCuTe$_{2}$,1.0186000000000002,eV/atom,
KCd(NO$_{2}$)$_{3}$,0.0,eV/atom,
RbV$_{2}$I$_{3}$O$_{13}$,1.7589,eV/atom,
Cs$_{2}$TaAgS$_{4}$,2.6338,eV/atom,
Ni$_{2}$Te$_{3}$O$_{8}$,3.0199000000000007,eV/atom,
CsFeF$_{4}$,2.8735,eV/atom,
Na$_{4}$TiO$_{4}$,3.3245999999999998,eV/atom,
TaTi$_{2}$N$_{3}$,0.0,eV/atom,
SiC,1.9612999999999996,eV/atom,
Bi$_{2}$Rh,0.0,eV/atom,
Cs$_{2}$MnV$_{2}$(BrO$_{3}$)$_{2}$,1.859,eV/atom,
TmInAg$_{2}$,0.0,eV/atom,
Ce$_{4}$Si$_{3}$Rh$_{4}$,0.0,eV/atom,
Na$_{2}$B$_{8}$O$_{13}$,5.4478,eV/atom,
Ti$_{3}$P,0.0,eV/atom,
Ni$_{3}$AgP$_{3}$(HO$_{6}$)$_{2}$,3.075,eV/atom,
SrIn$_{4}$Ir,0.0,eV/atom,
H$_{4}$IN,3.6458,eV/atom,
Ba$_{9}$In$_{4}$H,0.0,eV/atom,
Li$_{3}$Pb,0.0,eV/atom,
PrBPt$_{4}$,0.0,eV/atom,
FeB,0.0,eV/atom,
NaHCO$_{2}$,4.9002,eV/atom,
CeNiSn$_{2}$,0.0,eV/atom,
Cd$_{2}$AgAu,0.0,eV/atom,
GeF$_{4}$,5.500500000000001,eV/atom,
Sm$_{2}$Au$_{5}$F$_{21}$,1.7612999999999999,eV/atom,
KGa$_{3}$,0.21629999999999994,eV/atom,
TbFe$_{2}$,0.0,eV/atom,
Sm$_{4}$(FeB$_{2}$)$_{3}$,0.0,eV/atom,
Sm$_{3}$Te$_{4}$,0.0,eV/atom,
KNa$_{2}$Li$_{3}$Cr$_{2}$(Si$_{2}$O$_{5}$)$_{6}$,3.8415,eV/atom,
Rb$_{3}$Sb$_{5}$O$_{14}$,1.1656000000000004,eV/atom,
Ag$_{8}$Ge$_{3}$O$_{10}$,0.08620000000000005,eV/atom,
LuPt$_{3}$,0.0,eV/atom,
Al$_{3}$Tc$_{2}$,0.0,eV/atom,
Ni$_{2}$Hg$_{2}$OF$_{6}$,0.9556,eV/atom,
Sr$_{11}$Al$_{4}$Sn$_{3}$,0.0,eV/atom,
NaCuPO$_{4}$,0.1743999999999999,eV/atom,
BiPS$_{4}$,1.4838999999999998,eV/atom,
Tb$_{2}$Fe$_{14}$B,0.0,eV/atom,
Fe$_{2}$P$_{2}$O$_{7}$,3.6850999999999994,eV/atom,
YGe$_{2}$,0.0,eV/atom,
CsEr(TaBr$_{3}$)$_{6}$,1.3194,eV/atom,
YbMgSi,0.0,eV/atom,
NaTl$_{2}$MoF$_{6}$,3.0026,eV/atom,
HgH$_{4}$C$_{4}$(Br$_{2}$N)$_{2}$,2.4168999999999996,eV/atom,
Sr$_{6}$Li$_{23}$,0.0,eV/atom,
Fe(CO)$_{5}$,3.4908,eV/atom,O=C=[Fe](=C=O)(=C=O)(=C=O)=C=O
Dy$_{3}$CuSnSe$_{7}$,0.9903999999999997,eV/atom,
Ti$_{6}$Ge$_{2}$B,0.0,eV/atom,
La$_{2}$CdRh$_{2}$,0.0,eV/atom,
PNCl$_{2}$,3.8545,eV/atom,
Cs$_{2}$Sn$_{2}$Hg$_{3}$S$_{8}$,1.6112,eV/atom,
YTlTe$_{2}$,1.5684,eV/atom,
RbNiC$_{2}$N$_{2}$Cl,0.9992,eV/atom,
Rb$_{2}$Nb$_{3}$Cl$_{7}$O$_{5}$,2.3515,eV/atom,
PdCl$_{2}$,0.9097,eV/atom,
BaTm$_{2}$CoO$_{5}$,2.0594000000000006,eV/atom,
Th$_{6}$FeBr$_{15}$,0.0,eV/atom,
Rb$_{7}$NaZn$_{2}$O$_{6}$,1.5706,eV/atom,
YSi$_{3}$Ir,0.0,eV/atom,
Na$_{2}$Al$_{2}$B$_{2}$O$_{7}$,4.3422,eV/atom,
Ca$_{3}$Sn$_{13}$Rh$_{4}$,0.0,eV/atom,
ScSiRu,0.0,eV/atom,
Yb$_{2}$Pb,0.0,eV/atom,
LiCeSi$_{2}$,0.0,eV/atom,
ScAu,0.0,eV/atom,
ZnP$_{2}$,1.4620000000000002,eV/atom,
KDyH$_{2}$C$_{2}$SO$_{9}$,3.1224,eV/atom,
Ta$_{5}$Ga$_{3}$,0.0,eV/atom,
K$_{4}$H$_{4}$PtC$_{6}$S$_{2}$(NO$_{6}$)$_{2}$,0.045599999999999974,eV/atom,
ErMgPd,0.0,eV/atom,
Sr(InHg)$_{2}$,0.0,eV/atom,
HS$_{8}$N,2.6047000000000002,eV/atom,
Pr$_{2}$Ni$_{12}$As$_{7}$,0.0,eV/atom,
Sr$_{2}$CaWO$_{6}$,3.2261999999999995,eV/atom,
TlGeI$_{3}$,1.9199999999999995,eV/atom,
CuMoO$_{4}$,0.0,eV/atom,
PuPd,0.0,eV/atom,
U(NiGe)$_{2}$,0.0,eV/atom,
EuAu,0.0,eV/atom,
CuSbPbS$_{3}$,0.7698,eV/atom,
Li$_{2}$CO$_{3}$,5.0573999999999995,eV/atom,
K$_{2}$Zn$_{2}$(MoO$_{4}$)$_{3}$,3.6458999999999997,eV/atom,
Gd(IO$_{3}$)$_{3}$,3.1156999999999995,eV/atom,
FeCO$_{3}$,0.0,eV/atom,
LiCu$_{2}$Ge,0.0,eV/atom,
K$_{5}$Sb$_{4}$,0.0,eV/atom,
CuH$_{7}$C$_{3}$SN$_{3}$O$_{4}$,0.0046,eV/atom,[Cu].O=CC(=O)O.S=C(N)NN.O
ErP$_{2}$H$_{7}$O$_{10}$,2.4933,eV/atom,
UF$_{5}$,0.7489,eV/atom,
AlFe$_{3}$,0.0,eV/atom,
Ta$_{2}$Mn$_{4}$Si$_{5}$,0.0011999999999998678,eV/atom,
BaCaSn,0.24659999999999993,eV/atom,
Sm$_{2}$Si$_{5}$Ru$_{3}$,0.0,eV/atom,
FeMoO$_{4}$,0.42869999999999964,eV/atom,
TbTl(PSe$_{3}$)$_{2}$,1.5415999999999999,eV/atom,
Cs(MoS)$_{3}$,0.0,eV/atom,
CeErS$_{3}$,0.0,eV/atom,
TiZn$_{2}$,0.0,eV/atom,
CrAg$_{3}$ClO$_{4}$,1.3861,eV/atom,
KHCO$_{2}$,4.3194,eV/atom,
Ti$_{2}$FeSe$_{4}$,9.00000000000567E-4,eV/atom,
NaAgO,0.0,eV/atom,
DyNi$_{2}$B$_{2}$C,0.0,eV/atom,
Nd$_{5}$Si$_{4}$,0.0,eV/atom,
BiIr$_{3}$(CO)$_{9}$,2.5458,eV/atom,
CrPbO$_{4}$,2.0486999999999997,eV/atom,
MgAg$_{3}$,0.0,eV/atom,
Ca$_{4}$Si$_{3}$Pd$_{4}$,0.0,eV/atom,
H$_{6}$W,0.0,eV/atom,
RbCr$_{2}$BiO$_{8}$,2.4169,eV/atom,
Eu$_{2}$Zn$_{2}$P$_{3}$,0.0,eV/atom,
V$_{2}$Zn$_{2}$O$_{7}$,2.0231000000000003,eV/atom,
Bi$_{2}$Pt$_{3}$Se$_{2}$,0.0,eV/atom,
TiFeO$_{3}$,2.0256000000000003,eV/atom,
Zr$_{2}$CoSi$_{2}$,0.0,eV/atom,
K$_{2}$MoAs$_{2}$O$_{9}$,2.7768,eV/atom,
AgCNO,1.3014,eV/atom,
SmSb$_{2}$Pd,0.0,eV/atom,
CdHg$_{2}$,0.0,eV/atom,
UFe$_{2}$,0.012299999999999756,eV/atom,
ErMgAg,0.0,eV/atom,
H$_{9}$C$_{2}$(NO)$_{3}$,3.4402,eV/atom,
Ba$_{3}$(AlGe)$_{2}$,0.0,eV/atom,
Pb(SN)$_{2}$,1.1674000000000002,eV/atom,
DyCoSn,0.0,eV/atom,
Ca$_{3}$Mn$_{2}$(SiO$_{4}$)$_{3}$,0.0,eV/atom,
Lu$_{4}$CoB$_{13}$,0.0,eV/atom,
ScP,0.0,eV/atom,
La$_{2}$S$_{3}$,1.0341999999999993,eV/atom,
CeFeSi$_{2}$,0.0,eV/atom,
B$_{6}$As,2.6454000000000004,eV/atom,
Y$_{5}$(In$_{2}$Pd)$_{2}$,0.0,eV/atom,
MnH$_{14}$C$_{3}$NCl$_{3}$O$_{2}$,4.0385,eV/atom,
Nb$_{3}$Se$_{10}$Cl$_{3}$,1.0930000000000002,eV/atom,[Cl-].[Cl-].[Cl-].[Nb+4].[Nb+5].[Se]=[SeH-].[Se]=[SeH-].[Se]=[SeH-].[Se]=[SeH-].[Se]=[SeH-]
Na$_{2}$B$_{4}$O$_{7}$,5.4224,eV/atom,
SiCN,0.0,eV/atom,
RbNdTe$_{4}$,0.16490000000000027,eV/atom,
Sr$_{5}$As$_{3}$,0.0,eV/atom,
GdIn,0.0,eV/atom,
Rb$_{4}$Ti$_{2}$P$_{6}$Se$_{25}$,1.1851,eV/atom,
Sb$_{2}$I$_{2}$F$_{11}$,0.0,eV/atom,
BaCdSnS$_{4}$,2.2956,eV/atom,
Nb(Br$_{3}$N)$_{2}$,0.0,eV/atom,
Sr(P$_{3}$Pt$_{2}$)$_{2}$,0.3733000000000004,eV/atom,
NaNbO$_{3}$,2.3639,eV/atom,
Sm$_{2}$In$_{8}$Pd,0.0,eV/atom,
Bi$_{2}$Ru$_{2}$O$_{7}$,0.037199999999999456,eV/atom,
EuSiPd,0.0,eV/atom,
Nd$_{5}$Tl$_{3}$,0.0,eV/atom,
Cu$_{3}$(AsO$_{4}$)$_{2}$,0.05400000000000027,eV/atom,
La$_{2}$CO$_{5}$,3.9487000000000005,eV/atom,
Fe$_{2}$NiO$_{4}$,0.0,eV/atom,
LaNb$_{2}$CuClO$_{7}$,0.0,eV/atom,
K$_{4}$MoC$_{5}$N$_{6}$O,2.4381,eV/atom,
GePtS,1.1038000000000006,eV/atom,
AsSOF$_{9}$,3.9252000000000002,eV/atom,O=[S+](F)(F)F.F[As-](F)(F)(F)(F)F
KP$_{2}$Au$_{5}$S$_{8}$,1.4084,eV/atom,[K+].[Au+3].[Au+3].[Au+3].[Au+3].[Au+3].O=P([O-])([O-])OP([O-])([O-])=S.O=P([O-])([O-])OP([O-])([O-])=S.O=P([O-])([O-])OP([O-])([O-])=S.O=P([O-])([O-])OP([O-])([O-])=S.O=P(O)(O)OP(=S)(O)O.O=P(O)(O)OP(=S)(O)O.O=P(O)(O)OP(=S)(O)O.O=P(O)(O)OP(=S)(O)O
Sb$_{2}$(S$_{2}$O$_{7}$)$_{3}$,4.1996,eV/atom,[Sb+3].[Sb+3].O=S(=O)([O-])OS(=O)(=O)[O-].O=S(=O)([O-])OS(=O)(=O)[O-].O=S(=O)([O-])OS(=O)(=O)[O-]
CrFe$_{2}$Sn,0.0,eV/atom,
La$_{4}$Re$_{6}$O$_{19}$,0.0,eV/atom,
Cs$_{3}$CuTeS$_{9}$,1.3247,eV/atom,
HgINO$_{3}$,1.9524000000000001,eV/atom,
NaCuPO$_{4}$,0.4311999999999996,eV/atom,
KSb$_{2}$F$_{7}$,4.1611,eV/atom,
K$_{3}$FeO$_{4}$,0.24329999999999996,eV/atom,
Mg$_{2}$MnH$_{24}$(ClO$_{2}$)$_{6}$,4.1512,eV/atom,
Bi$_{3}$SbO$_{7}$,2.1624999999999996,eV/atom,
OsCl$_{4}$O,1.0149,eV/atom,
Tm$_{3}$InN,0.0,eV/atom,
HfGaNi,0.0,eV/atom,
Ce$_{4}$Bi$_{3}$,0.0,eV/atom,
BaPb$_{2}$IF$_{5}$,2.8424,eV/atom,
GdSi$_{3}$Ir,0.0,eV/atom,
Tl$_{2}$TeMo$_{2}$(PO$_{7}$)$_{2}$,2.8238000000000003,eV/atom,
CsUN$_{3}$O$_{11}$,2.4395000000000002,eV/atom,
LiFe$_{2}$F$_{6}$,1.7058,eV/atom,
Bi$_{9}$Rh$_{2}$I$_{3}$,0.5161000000000007,eV/atom,
Mn$_{4}$Si$_{7}$,0.7978000000000005,eV/atom,
ZrSbPd,0.0,eV/atom,
CaH$_{12}$(IO$_{7}$)$_{2}$,2.1012,eV/atom,
GaS,2.0122999999999998,eV/atom,
LuSb$_{2}$,0.0,eV/atom,
Cr(CO)$_{6}$,3.4576000000000002,eV/atom,O=C=[Cr](=C=O)(=C=O)(=C=O)(=C=O)=C=O
CuSe$_{3}$I,1.0589,eV/atom,
Li$_{4}$Ga$_{3}$Si$_{3}$ClO$_{12}$,4.4117999999999995,eV/atom,
Sb$_{6}$Pb$_{6}$S$_{17}$,0.7809999999999997,eV/atom,
SbAsO$_{4}$,3.0829,eV/atom,
Ba$_{2}$Ru$_{7}$O$_{18}$,0.0,eV/atom,
Na$_{2}$MgAlF$_{7}$,6.656,eV/atom,
Rb$_{2}$VAgSe$_{4}$,1.0795,eV/atom,
Te$_{2}$Au,0.0,eV/atom,
VAu$_{2}$,0.0,eV/atom,
La$_{2}$TiNiO$_{6}$,2.3843999999999994,eV/atom,
Na$_{2}$Ca$_{3}$Si$_{3}$O$_{10}$,4.3798,eV/atom,
NiH$_{4}$SeO$_{5}$,3.8041,eV/atom,
TcAgO$_{4}$,1.6034000000000002,eV/atom,
Fe(SbO$_{2}$)$_{2}$,0.5327000000000002,eV/atom,
CaAl$_{4}$O$_{7}$,3.9982,eV/atom,
SrLiSb,0.6857999999999995,eV/atom,
UCr$_{2}$O$_{6}$,1.0302000000000007,eV/atom,
Pr$_{2}$Ge$_{5}$Rh$_{3}$,0.0,eV/atom,
AsSe(IF$_{2}$)$_{3}$,1.3837,eV/atom,
Li$_{2}$VF$_{6}$,2.1121,eV/atom,
Si(H$_{3}$C)$_{2}$,3.5723000000000003,eV/atom,
ErPtF$_{7}$,2.2785,eV/atom,
Ba$_{2}$In$_{2}$S$_{5}$,1.9866000000000001,eV/atom,
NaSbO$_{3}$,1.2740000000000005,eV/atom,
Rb$_{4}$V$_{5}$CdClO$_{15}$,2.3192,eV/atom,
BaCu(SeO$_{3}$)$_{2}$,0.5648,eV/atom,
Ba$_{2}$CuSi$_{2}$O$_{7}$,0.17859999999999987,eV/atom,
B$_{10}$H$_{13}$I,2.3907,eV/atom,
Sb$_{2}$F$_{13}$,0.0,eV/atom,
TlCuF$_{3}$,0.0,eV/atom,
Sm$_{3}$SiAgS$_{7}$,1.7935999999999996,eV/atom,
Ca$_{6}$Si$_{3}$H$_{2}$O$_{13}$,4.47,eV/atom,
LaMnSi$_{2}$,0.0,eV/atom,
Nb$_{3}$Si,0.0,eV/atom,
Rb$_{2}$CuH$_{4}$(Cl$_{2}$O)$_{2}$,0.7801,eV/atom,
CoH$_{21}$C$_{2}$N$_{6}$Cl$_{2}$O$_{5}$,0.6548,eV/atom,
PH$_{9}$AuC$_{3}$S$_{3}$Cl,2.8803,eV/atom,
Sm(Mo$_{4}$O$_{7}$)$_{2}$,0.0,eV/atom,
NaTi$_{2}$O$_{4}$,0.0,eV/atom,
Cs$_{5}$Hg$_{19}$,0.0,eV/atom,
BaZr(PO$_{4}$)$_{2}$,4.156000000000001,eV/atom,
Rb$_{3}$TaS$_{4}$,2.8458,eV/atom,
SeF$_{4}$,4.1373999999999995,eV/atom,F[Se]F
CoP$_{2}$PbO$_{7}$,2.9639,eV/atom,
CaAl$_{4}$Si$_{2}$(HO$_{6}$)$_{2}$,4.5346,eV/atom,
K$_{6}$Ge$_{2}$O$_{7}$,3.0751,eV/atom,
Ho$_{2}$Ni$_{2}$Sn,0.0,eV/atom,
BaCdSbF,0.28459999999999974,eV/atom,
LaNi$_{5}$,0.0,eV/atom,
BaNd$_{2}$CoS$_{5}$,0.0,eV/atom,
LiSbS$_{2}$,1.0716,eV/atom,
Ho$_{3}$Ni$_{19}$B$_{10}$,0.0,eV/atom,
SrMo$_{3}$(PO$_{7}$)$_{2}$,1.6374999999999997,eV/atom,
RbBSe$_{3}$,1.6415,eV/atom,
YGaO$_{3}$,2.8953000000000007,eV/atom,
LiCe(CuP)$_{2}$,0.0,eV/atom,
Co$_{2}$H$_{34}$N$_{12}$Cl$_{3}$O$_{10}$,0.3024,eV/atom,
RbFeCl$_{4}$,1.305,eV/atom,
Ca$_{2}$Si$_{3}$PbO$_{9}$,4.371,eV/atom,
YCuO$_{2}$,2.6470000000000002,eV/atom,
SmGeAu,0.0,eV/atom,
Mn$_{3}$B$_{7}$IO$_{13}$,3.8123,eV/atom,
Ce$_{2}$Br$_{3}$N,0.0,eV/atom,
CuSnPd$_{2}$,0.0,eV/atom,
H$_{10}$C$_{5}$SeS$_{2}$BrN$_{3}$,2.3989000000000003,eV/atom,
Ba$_{6}$Ni$_{25}$S$_{27}$,0.0,eV/atom,
SrCu$_{2}$GeSe$_{4}$,0.5884999999999998,eV/atom,
PbCO$_{3}$,3.3293,eV/atom,
TiGaRh,0.0,eV/atom,
Gd$_{2}$B$_{3}$C$_{2}$,0.019199999999999662,eV/atom,
TbCl$_{3}$,4.5211,eV/atom,
RbPO$_{3}$,4.8466000000000005,eV/atom,
Pu$_{5}$Os$_{3}$,0.0,eV/atom,
La$_{2}$SiSeO$_{4}$,2.3068999999999997,eV/atom,
Y(MnSn)$_{6}$,0.0,eV/atom,
Tl(CoSe)$_{2}$,0.0,eV/atom,
Ca$_{2}$Pb,0.6495000000000002,eV/atom,
Cr$_{3}$BO$_{6}$,1.6019999999999994,eV/atom,
NaIn(MoO$_{4}$)$_{2}$,3.5942,eV/atom,
Na$_{3}$SiH$_{5}$O$_{6}$,3.8646999999999996,eV/atom,
YPb$_{2}$,0.0,eV/atom,
CrCoPt$_{2}$,0.0,eV/atom,
HoFe$_{3}$,0.01470000000000038,eV/atom,
Pu(CrSi)$_{2}$,0.0,eV/atom,
Ba$_{3}$Y$_{2}$(B$_{2}$O$_{5}$)$_{3}$,4.5196000000000005,eV/atom,
Ti$_{2}$GaC,0.0,eV/atom,
Sr$_{2}$GdS$_{3}$,0.0,eV/atom,
Ba$_{2}$LuCu$_{3}$O$_{7}$,0.0,eV/atom,
BaMo$_{2}$(PO$_{4}$)$_{4}$,2.3292,eV/atom,
Sr$_{11}$Bi$_{10}$,0.0,eV/atom,
SiO$_{2}$,1.2528,eV/atom,
K$_{6}$Ti$_{2}$O$_{7}$,3.455,eV/atom,
Ba$_{2}$CaTlCu$_{2}$O$_{7}$,0.0,eV/atom,
Rb$_{2}$ThF$_{6}$,6.2733,eV/atom,
Ni$_{3}$S$_{4}$,0.0,eV/atom,
YbMgGe,0.0,eV/atom,
ZrI$_{3}$,0.0,eV/atom,
Fe$_{4}$CoSiB$_{2}$,0.0,eV/atom,
Ti(ClO$_{4}$)$_{4}$,2.9081,eV/atom,
Tm$_{3}$(FeGe)$_{4}$,0.0,eV/atom,
Rb$_{2}$TiCl$_{6}$,2.1471,eV/atom,
U$_{6}$Co,0.0,eV/atom,
Li$_{2}$Ti$_{3}$(BiO$_{3}$)$_{4}$,0.0,eV/atom,
CaH$_{12}$(ClO$_{3}$)$_{2}$,4.9878,eV/atom,[Cl-].[Cl-].[Ca+2].O.O.O.O.O.O
Na$_{4}$Al$_{3}$Si$_{3}$IO$_{12}$,4.1507,eV/atom,
AlVO$_{4}$,3.0384,eV/atom,
BPt$_{2}$,0.0,eV/atom,
K$_{2}$Mn(NbCl$_{3}$)$_{6}$,1.0316999999999998,eV/atom,
Ba$_{3}$NdRu$_{2}$O$_{9}$,0.0,eV/atom,
LiBIr,0.0,eV/atom,
LaMnSbO,0.0,eV/atom,
KAlF$_{4}$,6.9377,eV/atom,
SrNiO$_{2}$,1.7349999999999999,eV/atom,
Ba$_{2}$ZnN$_{2}$,0.4796999999999998,eV/atom,
SmCoSi$_{3}$,0.0,eV/atom,
K$_{3}$ErCl$_{6}$,5.196899999999999,eV/atom,
Re$_{2}$PbO$_{8}$,3.7674000000000003,eV/atom,
Co$_{2}$P$_{2}$H$_{4}$O$_{9}$,2.9966000000000004,eV/atom,
La$_{9}$(SbO)$_{5}$,0.0,eV/atom,
CuH$_{2}$SeO$_{5}$,0.5822,eV/atom,
PH$_{11}$C(NO$_{2}$)$_{2}$,0.24760000000000004,eV/atom,
Sr$_{3}$(GaP$_{2}$)$_{2}$,1.1494999999999997,eV/atom,
NaPrSe$_{2}$,1.7924999999999998,eV/atom,
NaYbSe$_{2}$,0.0,eV/atom,
Rb$_{2}$ZnH$_{12}$(SO$_{7}$)$_{2}$,4.845,eV/atom,
RePO$_{5}$,0.0,eV/atom,
Zr$_{2}$NiP$_{2}$,0.0,eV/atom,
WN$_{18}$,1.7919,eV/atom,[N-]=[N+]=N[W](N=[N+]=[N-])(N=[N+]=[N-])(N=[N+]=[N-])(N=[N+]=[N-])N=[N+]=[N-]
Ni(ClO$_{3}$)$_{2}$,0.0,eV/atom,
H$_{10}$C$_{2}$N$_{2}$O$_{5}$,3.4042,eV/atom,O=C([O-])C(=O)[O-].O.[NH4+].[NH4+]
Fe$_{3}$PdN,0.0,eV/atom,
Ba(CuS)$_{2}$,0.5059999999999993,eV/atom,
TiRh$_{3}$,0.0,eV/atom,
K$_{2}$B$_{2}$Se$_{7}$,1.6237000000000001,eV/atom,
RbAuO,1.4283000000000001,eV/atom,
KSb(PO$_{4}$)$_{2}$,2.9439,eV/atom,
MgSiO$_{3}$,4.3843,eV/atom,
NaAl(MoO$_{4}$)$_{2}$,3.6881,eV/atom,
Pr$_{2}$Ga,0.0,eV/atom,
BaSm$_{2}$NiO$_{5}$,2.1603000000000003,eV/atom,
ZrGe$_{2}$Rh,0.0,eV/atom,
YOF,4.9285,eV/atom,
ThInNi,0.0,eV/atom,
KEu$_{2}$I$_{5}$,1.2522000000000002,eV/atom,
HgSeO$_{3}$,2.2784,eV/atom,
Zn$_{2}$P$_{2}$HNO$_{8}$,0.0,eV/atom,
Sr$_{2}$Ti$_{2}$Bi$_{2}$OF$_{2}$,0.0,eV/atom,
Ti$_{4}$H$_{3}$Pd$_{2}$,0.0,eV/atom,
HoOs$_{2}$,0.0,eV/atom,
Rb$_{3}$CO$_{3}$F,3.4607,eV/atom,
Ta$_{2}$Pd$_{3}$Se$_{8}$,0.6518000000000002,eV/atom,
NaLa$_{6}$OsI$_{12}$,0.4035000000000002,eV/atom,
NaTbS$_{2}$,2.2790999999999997,eV/atom,
CeSc$_{3}$(BO$_{3}$)$_{4}$,0.22490000000000077,eV/atom,
NaH$_{6}$RuN(ClO)$_{4}$,0.2793000000000001,eV/atom,
WO$_{3}$,1.4691,eV/atom,
C,0.02859999999999996,eV/atom,[C]
Sc$_{11}$Os$_{4}$,0.0,eV/atom,
YbMg$_{2}$,0.0,eV/atom,
Ca$_{3}$(AlN$_{2}$)$_{2}$,2.5263999999999998,eV/atom,
NdPS$_{4}$,2.2519,eV/atom,
Sr$_{3}$Rh$_{4}$Pb$_{13}$,0.0,eV/atom,
CeNi$_{5}$Sn,0.0,eV/atom,
PbWO$_{4}$,3.0288,eV/atom,
UO$_{3}$,1.6376000000000008,eV/atom,
Al$_{3}$V,0.0,eV/atom,
Lu$_{3}$Ga$_{8}$Ir$_{3}$,0.0,eV/atom,
P(HO)$_{4}$,5.7898000000000005,eV/atom,
P$_{4}$Se$_{3}$,2.1599999999999997,eV/atom,
Np(FeSi)$_{2}$,0.0,eV/atom,
Sr(FeO$_{2}$)$_{2}$,1.8881999999999999,eV/atom,
ZrH$_{12}$C$_{2}$(NF)$_{6}$,4.7771,eV/atom,
Rb$_{2}$NaAl$_{6}$F$_{21}$,7.004199999999999,eV/atom,
CdI$_{2}$,2.3407,eV/atom,
CoH$_{16}$C$_{4}$(NCl$_{2}$)$_{2}$,0.8333999999999999,eV/atom,
Tl$_{3}$Au,0.0,eV/atom,
Tl$_{2}$S,0.7668000000000004,eV/atom,
Sr(MnAs)$_{2}$,0.0,eV/atom,
Er$_{4}$NiB$_{13}$,0.0,eV/atom,
Ca(PtO$_{2}$)$_{2}$,0.0,eV/atom,
NbI$_{3}$O,0.8108000000000002,eV/atom,
Au,0.0,eV/atom,
Pu$_{3}$Si$_{2}$,0.0,eV/atom,
Cs$_{3}$Mo$_{2}$Br$_{9}$,1.0076,eV/atom,
CeGaAg,0.0,eV/atom,
ZnP$_{2}$H$_{7}$NO$_{8}$,4.6331,eV/atom,
Sr$_{2}$Si,0.3466999999999998,eV/atom,
Sn$_{2}$Ru,0.0,eV/atom,
ScAg,0.0,eV/atom,
Ba$_{3}$SrRu$_{2}$O$_{9}$,0.3083999999999998,eV/atom,
Ca$_{3}$CrN$_{3}$,0.0,eV/atom,
Ho$_{6}$FeBi$_{2}$,0.0,eV/atom,
RbBS$_{2}$,2.8271,eV/atom,
UGe$_{2}$,0.0,eV/atom,
PrSi$_{2}$Ru,0.0,eV/atom,
Ce$_{10}$(B$_{3}$C$_{4}$)$_{3}$,0.0,eV/atom,
Sm$_{2}$ReO$_{5}$,0.7924999999999995,eV/atom,
SClO$_{2}$F,4.6493,eV/atom,O=S(=O)(F)Cl
Y$_{5}$Sn$_{3}$,0.0,eV/atom,
KLi(PO$_{3}$)$_{2}$,5.2914,eV/atom,
Co$_{3}$C$_{9}$SeO$_{9}$,1.0421,eV/atom,
Sr(GaRh)$_{2}$,0.10170000000000012,eV/atom,
Ho$_{2}$C$_{3}$,0.0,eV/atom,
SrP$_{3}$,0.3689,eV/atom,
Fe(BO$_{2}$)$_{2}$,3.4423999999999997,eV/atom,
FeGe$_{2}$,0.0,eV/atom,
U(GePt)$_{2}$,0.0027999999999996916,eV/atom,
YbBO$_{3}$,0.0,eV/atom,
ScF$_{3}$,6.0425,eV/atom,
Np$_{2}$InPt$_{2}$,0.0,eV/atom,
TeOF$_{2}$,4.189,eV/atom,
Na$_{8}$AsO$_{3}$,0.0,eV/atom,
Sr$_{2}$SnS$_{3}$F$_{2}$,2.0801,eV/atom,
UCuSb$_{2}$,0.0,eV/atom,
Na$_{3}$H$_{5}$(CO$_{4}$)$_{2}$,4.6108,eV/atom,
Gd$_{2}$MgGe$_{2}$,0.0,eV/atom,
NaFeP$_{3}$H$_{7}$O$_{13}$,2.6593,eV/atom,
Cs$_{2}$GeP$_{4}$O$_{13}$,4.1237,eV/atom,
Nd(Cu$_{2}$P)$_{2}$,0.11079999999999934,eV/atom,
K$_{4}$CO$_{4}$,2.9688,eV/atom,
Ba$_{2}$Ti$_{2}$Fe$_{2}$As$_{4}$O,0.0,eV/atom,
Pr(PRh)$_{2}$,0.0,eV/atom,
RbFeF$_{4}$,2.9575000000000005,eV/atom,
BaAl$_{2}$O$_{6}$,0.0,eV/atom,
CeNi$_{5}$,0.0,eV/atom,
P$_{4}$Ru,0.8846000000000007,eV/atom,
Zr$_{2}$(Co$_{7}$B$_{2}$)$_{3}$,0.0,eV/atom,
SnI$_{4}$,1.5183,eV/atom,
K$_{3}$CO,0.2972,eV/atom,
Gd(NiSb)$_{2}$,0.0,eV/atom,
Li$_{5}$NCl$_{2}$,1.9425000000000003,eV/atom,
LiZnPO$_{4}$,4.13,eV/atom,
MnFe,0.0,eV/atom,
BN,3.7460000000000004,eV/atom,
CrH$_{14}$N$_{4}$Cl$_{3}$O,3.2618,eV/atom,
CsNdS$_{2}$,2.3084,eV/atom,
NaZr$_{2}$CuF$_{11}$,0.5941000000000001,eV/atom,
Yb$_{5}$Ag$_{3}$,0.0,eV/atom,
TbSi,0.0,eV/atom,
Dy$_{2}$O$_{3}$,3.9251000000000005,eV/atom,
ScNi$_{5}$,0.0,eV/atom,
InSb$_{2}$S$_{4}$Cl,1.5135,eV/atom,
Ba$_{2}$Bi$_{3}$,0.0,eV/atom,
CeF$_{3}$,0.0,eV/atom,
In$_{9}$(CuSe$_{4}$)$_{4}$,0.0,eV/atom,
CuBr,0.9948999999999999,eV/atom,
NaH$_{6}$ClO$_{5}$,3.0156,eV/atom,
VC$_{3}$,0.0,eV/atom,
Na$_{2}$RuO$_{4}$,0.0,eV/atom,
Cu$_{3}$As,0.0,eV/atom,
TiCrAs,0.0,eV/atom,
SbI(ClF$_{3}$)$_{2}$,1.8658,eV/atom,F[Sb-](F)(F)(F)(F)F.Cl[I+]Cl
Cs$_{2}$In$_{3}$,0.008000000000000007,eV/atom,
Ba$_{3}$NbAs$_{3}$O,1.0685,eV/atom,
TePdI,0.0,eV/atom,
U$_{2}$Cl$_{5}$O$_{2}$,0.0,eV/atom,
HfCo$_{7}$,0.0,eV/atom,
K$_{6}$CdTe$_{4}$,1.6626000000000003,eV/atom,
Sr$_{3}$GaN$_{3}$,0.5667000000000004,eV/atom,
BaNb$_{8}$O$_{14}$,0.20310000000000006,eV/atom,
Sm$_{4}$Mo$_{4}$O$_{11}$,0.8328000000000002,eV/atom,
LiNO$_{3}$,2.9369,eV/atom,
Ca$_{4}$Mn$_{2}$O$_{7}$,1.3693999999999997,eV/atom,
Sr$_{2}$YbTaO$_{6}$,0.0,eV/atom,
Ba$_{5}$CrN$_{5}$,0.1227999999999998,eV/atom,
Eu$_{2}$SiO$_{4}$,0.37879999999999914,eV/atom,
BaZnAsF,0.24529999999999985,eV/atom,
ThAg$_{2}$,0.0,eV/atom,
Na$_{2}$Pr$_{4}$Cl$_{9}$O$_{2}$,0.6162999999999998,eV/atom,
EuMnO$_{3}$,0.0,eV/atom,
Ag$_{3}$Sb,0,eV/atom,
Nb$_{3}$P,0.0,eV/atom,
CoF$_{3}$,0.0,eV/atom,
V$_{2}$P$_{4}$S$_{13}$,0.1524000000000001,eV/atom,
KCrH$_{18}$N$_{6}$(ClO$_{2}$)$_{4}$,3.7571,eV/atom,
Ba$_{3}$Na$_{2}$(CN$_{2}$)$_{4}$,3.3947000000000003,eV/atom,
K$_{3}$(Cu$_{4}$Se$_{3}$)$_{2}$,0.5441000000000003,eV/atom,
Ga$_{8}$BIr$_{4}$,0.0,eV/atom,
Ba$_{3}$BPO$_{7}$,3.3373,eV/atom,
SiO$_{2}$,5.4377,eV/atom,
Hf$_{2}$TlC,0.0,eV/atom,
Gd(LuS$_{2}$)$_{3}$,1.0491999999999995,eV/atom,
CeGaPt,0.0,eV/atom,
Sr$_{2}$CrClO$_{4}$,1.1299,eV/atom,
CuH$_{12}$C$_{4}$(NO)$_{6}$,0.0,eV/atom,[Cu].O=C([O-])[O-].NC(N)=[NH2+].NC(N)=[NH2+]
YCl$_{3}$,4.9300999999999995,eV/atom,
SrTa$_{2}$Bi$_{2}$O$_{9}$,2.4928,eV/atom,
Fe(RhSe$_{2}$)$_{2}$,0.0,eV/atom,
PrPOsO,0.0,eV/atom,
HoSnRh,0.0,eV/atom,
Ho$_{3}$Se$_{3}$N,1.5205000000000002,eV/atom,
La$_{3}$AgSnS$_{7}$,1.9474,eV/atom,
CaGaSnH,0.21010000000000062,eV/atom,
Sr$_{2}$MnWO$_{6}$,2.1882,eV/atom,
LiH$_{2}$N,2.7714999999999996,eV/atom,
Pr$_{2}$B$_{5}$,0.0,eV/atom,
ZrMnSi,0.0,eV/atom,
Li$_{6}$CoCl$_{8}$,0.32289999999999996,eV/atom,