formula,Property band_gap,Property band_gap units,Property SMILES
Mg(GaS$_{2}$)$_{2}$,1.9741,eV/atom,
NdBO$_{3}$,5.0609,eV/atom,
P$_{3}$H$_{18}$RuC$_{6}$(SO)$_{6}$,0.1594,eV/atom,
Rb$_{2}$H$_{2}$C$_{2}$O$_{5}$,3.4116999999999997,eV/atom,
ZnRhF$_{6}$,0.0,eV/atom,
TiCu$_{3}$,0.0,eV/atom,
Eu$_{3}$BWO$_{9}$,0.0,eV/atom,
DyOF,5.020200000000001,eV/atom,
Sr(PIr)$_{2}$,0.44320000000000004,eV/atom,
Sr(NiO$_{2}$)$_{4}$,0.37180000000000035,eV/atom,
La$_{2}$Re$_{3}$B$_{7}$,0.04449999999999932,eV/atom,
Ta$_{2}$O$_{3}$,0.15559999999999974,eV/atom,
Mg$_{2}$In,0.0,eV/atom,
Ba$_{3}$Si$_{5}$O$_{13}$,4.514799999999999,eV/atom,
ZnH$_{4}$(ClO$_{3}$)$_{2}$,2.5049,eV/atom,
SbTeI,0.8605999999999998,eV/atom,
TiTlPO$_{5}$,2.6472999999999995,eV/atom,
SnC,0.6257000000000001,eV/atom,
RbYbBr$_{3}$,4.4851,eV/atom,
SrCuSF,1.5103,eV/atom,
CdSi$_{3}$PH$_{27}$C$_{9}$Br$_{2}$,3.6784,eV/atom,[Br-].[Br-].[Cd+2].P([Si](C)(C)C)([Si](C)(C)C)[Si](C)(C)C
Na$_{4}$SnSe$_{4}$,1.4604,eV/atom,
BaTbCuTe$_{3}$,0.6114999999999995,eV/atom,
U$_{2}$SnRh$_{2}$,0.0,eV/atom,
Eu$_{3}$IrO$_{7}$,0,eV/atom,
La$_{4}$MgIr,0.0,eV/atom,
Rb$_{4}$CO$_{4}$,0.8876,eV/atom,
Sr$_{3}$P$_{6}$(N$_{4}$O$_{3}$)$_{2}$,4.4971,eV/atom,
La$_{3}$ZrSb$_{5}$,0.0,eV/atom,
P$_{3}$H$_{22}$C$_{3}$N$_{9}$O$_{11}$,4.9847,eV/atom,
ReTc(SnO$_{3}$)$_{2}$,0.0,eV/atom,
Mo$_{9}$O$_{26}$,0.6605000000000001,eV/atom,
BaZrF$_{6}$,6.2669,eV/atom,
Cs$_{3}$U$_{2}$Ge$_{2}$O$_{11}$,0.1942999999999997,eV/atom,
Ho$_{2}$Co$_{7}$,0.0,eV/atom,
Er$_{4}$Ge$_{6}$Rh$_{7}$,0.0,eV/atom,
LiCr(GeO$_{3}$)$_{2}$,2.7518,eV/atom,
Ho$_{10}$Si$_{17}$,0.0,eV/atom,
Rb$_{5}$Th(PS$_{4}$)$_{3}$,2.0725000000000002,eV/atom,
Ca$_{3}$(GaPd)$_{2}$,0.0,eV/atom,
Nd$_{3}$AlN,0.0,eV/atom,
Dy$_{2}$Ti$_{3}$Si$_{4}$,0.0,eV/atom,
SiO$_{2}$,5.6388,eV/atom,
Tb$_{2}$Se$_{2}$O$_{7}$,3.2198999999999995,eV/atom,
GaI$_{2}$,2.3766,eV/atom,
YAs,0.0,eV/atom,
InCu$_{2}$,0.0,eV/atom,
KGePO$_{5}$,3.2291,eV/atom,
ZnH$_{12}$C$_{6}$S$_{2}$(N$_{5}$O)$_{2}$,3.7795,eV/atom,
RbSb$_{2}$Au$_{3}$S$_{5}$,0.7259000000000002,eV/atom,
Sr$_{3}$Mg(SiO$_{4}$)$_{2}$,4.6846,eV/atom,
Dy(MnSn)$_{6}$,0.0,eV/atom,
Ho$_{2}$Si$_{4}$CN$_{6}$,3.2067999999999994,eV/atom,
PrCdCu,0.0,eV/atom,
NaGdSe$_{2}$,1.3585,eV/atom,
Cs$_{2}$Sr$_{2}$(CO$_{3}$)$_{3}$,4.6054,eV/atom,
Sm$_{5}$Ge$_{4}$,0.0,eV/atom,
TlNO$_{3}$,2.7866999999999997,eV/atom,
Na$_{2}$B$_{3}$HO$_{6}$,4.6148,eV/atom,
Dy(GeRh)$_{2}$,0.0,eV/atom,
Ce$_{2}$B$_{8}$O$_{15}$,0.15829999999999966,eV/atom,
CsCuSe$_{4}$,1.0932,eV/atom,
Dy(Fe$_{2}$Ge)$_{2}$,0.0,eV/atom,
Nd(PRu)$_{2}$,0.0,eV/atom,
TlSe,0.0,eV/atom,
KAs,0.6695,eV/atom,
NdInCu$_{2}$,0.0,eV/atom,
Ho$_{5}$Ge$_{3}$C,0.0,eV/atom,
Na$_{3}$LaN$_{6}$,0.0,eV/atom,
GaCuTe$_{2}$,0.20330000000000048,eV/atom,
NaFeH$_{8}$(NF$_{3}$)$_{2}$,0.0,eV/atom,
Ag$_{2}$PO$_{3}$F,1.0774,eV/atom,
DyGa$_{4}$Ni,0.0,eV/atom,
RbFeS$_{2}$,0.0,eV/atom,
Ca$_{3}$Pb,0.0,eV/atom,
Th(MnAl$_{2}$)$_{4}$,0.0,eV/atom,
La$_{3}$RuO$_{7}$,0.5690999999999997,eV/atom,
LuVO$_{3}$,1.6225999999999994,eV/atom,
Zn$_{2}$SeCl$_{2}$O$_{3}$,4.0926,eV/atom,
Yb$_{2}$SiO$_{5}$,0.0,eV/atom,
SiCl$_{4}$,5.5541,eV/atom,
BaMgGe,0.0,eV/atom,
CeNiGe$_{2}$,0.0,eV/atom,
PrMgSi$_{2}$,0.0,eV/atom,
YFeGe$_{2}$,0.0,eV/atom,
AgAs(XeF$_{5}$)$_{2}$,1.4374000000000002,eV/atom,
Fe$_{2}$PO$_{5}$,1.6458999999999997,eV/atom,
Th$_{2}$Zn$_{17}$,0.09830000000000005,eV/atom,
Sr$_{3}$Er$_{2}$(BO$_{3}$)$_{4}$,4.476699999999999,eV/atom,
SrH$_{2}$Cl$_{2}$O,4.0372,eV/atom,
Sr$_{2}$Sb$_{2}$Se$_{3}$O$_{2}$,0.7570000000000001,eV/atom,
KRb$_{2}$ScF$_{6}$,6.3812999999999995,eV/atom,
LaBPd$_{3}$,0.0,eV/atom,
Cr(PO$_{3}$)$_{3}$,3.1451,eV/atom,
CsCrF$_{4}$,2.6209,eV/atom,
Rb$_{2}$Hg$_{3}$Te$_{4}$,1.0159,eV/atom,
AsH$_{12}$C$_{4}$I$_{3}$,1.7631999999999999,eV/atom,
Ag$_{4}$Te(ClO$_{3}$)$_{2}$,0.0,eV/atom,
BaDyFe$_{4}$O$_{7}$,0.0,eV/atom,
K$_{3}$Cu$_{2}$(BiS$_{2}$)$_{5}$,0.5758000000000001,eV/atom,
Hg$_{6}$Sb$_{5}$Br$_{7}$,0.9445000000000001,eV/atom,
Ni$_{3}$S$_{2}$,0.0,eV/atom,
BaY$_{2}$PdO$_{5}$,1.9870999999999999,eV/atom,
La$_{5}$Cu$_{19}$P$_{12}$,0.0,eV/atom,
Na$_{2}$GaCuF$_{7}$,0.0,eV/atom,
Pr$_{2}$Au,0.0,eV/atom,
Sm(AlSi)$_{2}$,0.0,eV/atom,
K$_{3}$TaO$_{8}$,2.9894,eV/atom,
VTe,0.0,eV/atom,
LiSi,0.0,eV/atom,
ScBrO,3.236,eV/atom,
Lu$_{5}$SbPd$_{2}$,0.0,eV/atom,
Ho$_{2}$Te$_{5}$,0.0,eV/atom,
Lu$_{3}$Ga$_{8}$Rh$_{3}$,0.0,eV/atom,
SrSnPt,0.0,eV/atom,
La$_{2}$Mg$_{17}$,0.0,eV/atom,
LaBr$_{2}$,0.5867999999999998,eV/atom,
Li$_{7}$TaN$_{4}$,3.3394999999999997,eV/atom,
Ce(SiAg)$_{2}$,0.0,eV/atom,
GdFe$_{5}$P$_{3}$,0.0,eV/atom,
SbXeO$_{2}$F$_{7}$,2.0896,eV/atom,
Sc$_{2}$CrC$_{3}$,0.0,eV/atom,
KFe$_{2}$Se$_{3}$,0.0,eV/atom,
PrAlNi,0.0,eV/atom,
BaSn$_{2}$(HO$_{2}$)$_{2}$,2.1031999999999997,eV/atom,
As$_{3}$Pb$_{2}$ClO$_{6}$,3.393,eV/atom,
LuNiPb,0.0,eV/atom,
H$_{2}$NO$_{2}$,3.3779,eV/atom,O=[N+]([O-])[O-].O[NH3+]
LaSeF,1.7260999999999997,eV/atom,
Re$_{3}$S$_{4}$Br,1.6219999999999999,eV/atom,
NaYbGeO$_{4}$,0.0,eV/atom,
TaSnO$_{3}$,0.0,eV/atom,
Na$_{2}$SO$_{4}$,5.026400000000001,eV/atom,
Na$_{2}$Th(PO$_{4}$)$_{2}$,4.9462,eV/atom,
HoSnGe,0.0,eV/atom,
Ni(RhO$_{2}$)$_{2}$,0.0,eV/atom,
InS,1.3508000000000004,eV/atom,
PrIn,0.0,eV/atom,
SrTh$_{2}$Se$_{5}$,1.4103000000000003,eV/atom,
USiIr,0.0,eV/atom,
ScGePt,0.0,eV/atom,
Rb$_{2}$O$_{3}$,0.0,eV/atom,
Co$_{3}$B$_{7}$BrO$_{13}$,2.146,eV/atom,
K$_{3}$AlH$_{6}$,2.8773,eV/atom,
CdH$_{3}$NO$_{5}$,3.2456,eV/atom,[Cd+2].[OH-].O=[N+]([O-])[O-].O
UCl$_{2}$O$_{3}$,0.09799999999999986,eV/atom,
CdI$_{2}$,2.3731,eV/atom,
CaScSi$_{3}$HO$_{9}$,5.0957,eV/atom,
Ba$_{2}$TlCuHgO$_{5}$,0.0,eV/atom,
Ce(Ni$_{5}$P$_{2}$)$_{2}$,0.0,eV/atom,
SmCoGe,0.0,eV/atom,
EuCdPd,0.021500000000000075,eV/atom,
Cs$_{2}$RbYF$_{6}$,6.2119,eV/atom,
H$_{4}$CSN$_{2}$Cl,3.6188000000000002,eV/atom,
MnH$_{16}$C$_{4}$N(OF$_{2}$)$_{2}$,2.2687,eV/atom,
SrTbO$_{3}$,0.0,eV/atom,
HfBe$_{2}$,0.0,eV/atom,
CaZn$_{2}$(PO)$_{2}$,0.0,eV/atom,
UGaPd,0.0,eV/atom,
CuH$_{12}$C$_{3}$SN$_{6}$O$_{7}$,0.5787,eV/atom,
Pr$_{6}$Fe$_{13}$Au,0.0011999999999998678,eV/atom,
Ba$_{2}$Mn$_{2}$As$_{2}$O,0.2557999999999998,eV/atom,
PrBi$_{2}$Au,0.0,eV/atom,
UGa$_{2}$,0.0,eV/atom,
Na$_{3}$B$_{6}$NO$_{13}$,3.2938,eV/atom,
Ag$_{2}$CN$_{2}$,0.9996999999999998,eV/atom,
Al(ICl$_{2}$)$_{3}$,1.7106,eV/atom,
NaNbN$_{2}$,0.8320000000000003,eV/atom,
Re$_{4}$Cl$_{8}$O$_{9}$,1.0174,eV/atom,
KAsOF$_{4}$,3.7145,eV/atom,
Ce$_{5}$Si$_{3}$,0.0,eV/atom,
AgBi$_{2}$S$_{3}$Cl,0.7821000000000007,eV/atom,
Ba$_{3}$Sc(BO$_{3}$)$_{3}$,3.4741999999999997,eV/atom,
GdBO$_{3}$,2.2426999999999997,eV/atom,
MnAlGe,0.0,eV/atom,
YNiGe$_{2}$,0.0,eV/atom,
SrCuO$_{3}$,0.0,eV/atom,
KCdF$_{3}$,3.3579,eV/atom,
CaBO$_{3}$,0.4137,eV/atom,
UGaCo,0.0,eV/atom,
DyHg$_{3}$,0.0,eV/atom,
MnH$_{6}$SO$_{6}$,4.3118,eV/atom,
Fe$_{3}$B,0.0,eV/atom,
TmGa$_{2}$Ni,0.0,eV/atom,
La$_{3}$SiAgS$_{7}$,1.9689000000000005,eV/atom,
Ba$_{3}$LuIr$_{2}$O$_{9}$,0.0,eV/atom,
Ce$_{3}$Ga$_{4}$Cl,0.0,eV/atom,
La$_{2}$Si$_{4}$CN$_{6}$,2.3360000000000003,eV/atom,
ReAsC$_{5}$SNO$_{5}$F$_{7}$,2.2391,eV/atom,
NaBF$_{4}$,7.841200000000001,eV/atom,
Na$_{3}$GaP$_{2}$H$_{2}$O$_{9}$,3.9887000000000006,eV/atom,
CsGdSiS$_{4}$,1.7163,eV/atom,
Cs$_{3}$MnF$_{7}$,1.5495,eV/atom,
Ca$_{14}$Si$_{19}$,0.0,eV/atom,
Nd(ClO$_{4}$)$_{3}$,4.8807,eV/atom,
Ba(Mo$_{3}$S$_{4}$)$_{2}$,0.0,eV/atom,
CoO,0.5880000000000001,eV/atom,
Eu(PIr)$_{2}$,0.2748999999999997,eV/atom,
LiZnSb,0.4057000000000004,eV/atom,
Er$_{2}$Mn$_{3}$Si$_{5}$,0.0,eV/atom,
VXe$_{2}$F$_{17}$,2.4287,eV/atom,
PrSb$_{2}$Au,0.0,eV/atom,
BS$_{2}$,2.5564,eV/atom,
RbH$_{2}$OF,5.3401,eV/atom,
NaFeP$_{2}$O$_{7}$,2.4732000000000003,eV/atom,
CaMg$_{2}$,0.0,eV/atom,
NaN$_{3}$,4.275,eV/atom,
NaYb(PS$_{3}$)$_{2}$,1.696,eV/atom,
Cu(HO)$_{2}$,0.0,eV/atom,
Li$_{3}$ScN$_{2}$,2.2440999999999995,eV/atom,
GaH$_{19}$C$_{8}$,3.558,eV/atom,
Ba$_{4}$Sm$_{4}$Zn$_{3}$PtO$_{15}$,2.3851,eV/atom,
NaLaMgTeO$_{6}$,2.5432000000000006,eV/atom,
NdBi,0.0,eV/atom,
LiSmO$_{2}$,3.7006,eV/atom,
Ta$_{2}$Mn$_{3}$O$_{8}$,2.3188000000000004,eV/atom,
BaTi$_{2}$O$_{5}$,2.8003,eV/atom,
Li$_{2}$Pt,0.0,eV/atom,
LaAl$_{2}$BOs$_{2}$,0.0,eV/atom,
Rh$_{8}$C$_{20}$O$_{19}$,1.4086,eV/atom,
Tm$_{2}$Ge$_{5}$Rh$_{3}$,0.0,eV/atom,
PrRhC$_{2}$,0.35460000000000047,eV/atom,
LaNiSnH$_{2}$,0.0,eV/atom,
LiNiPO$_{4}$,3.9578999999999995,eV/atom,
GdNi$_{4}$Au,0.0,eV/atom,
Rb$_{2}$Te(H$_{6}$O$_{5}$)$_{2}$,3.0155000000000003,eV/atom,
Dy(AlC)$_{3}$,0.0,eV/atom,
CaSiO$_{3}$,4.8369,eV/atom,
Ta$_{21}$Te$_{13}$,0.0,eV/atom,
K$_{2}$B$_{6}$H$_{5}$NO$_{2}$,1.7886000000000002,eV/atom,
CaU(PbO$_{3}$)$_{2}$,1.6534000000000004,eV/atom,
MgTe$_{2}$,1.1161999999999992,eV/atom,
TmGePd,0.0,eV/atom,
DySnGe,0.0,eV/atom,
BH$_{2}$N,5.2948,eV/atom,
Be$_{3}$P$_{2}$(H$_{2}$O$_{5}$)$_{2}$,5.8481,eV/atom,
KFe$_{3}$P$_{8}$(H$_{11}$O$_{18}$)$_{2}$,2.8003,eV/atom,
Y$_{3}$AlNi$_{8}$,0.0376000000000003,eV/atom,
Ba$_{2}$Zn,0.0,eV/atom,
SmCrO$_{4}$,0.2479,eV/atom,
V$_{2}$Te$_{2}$O$_{7}$F$_{2}$,2.4658,eV/atom,
ZnPH$_{5}$C$_{2}$N$_{4}$O$_{3}$,4.5292,eV/atom,
K$_{2}$TeH$_{6}$SeO$_{10}$,3.4008,eV/atom,
RbPrSe$_{2}$,1.9029,eV/atom,
Dy$_{4}$Sb$_{3}$,0.0,eV/atom,
U$_{2}$Si$_{4}$W$_{3}$,0.0,eV/atom,
BaO$_{2}$,2.1125,eV/atom,
LiYbSb,0.4262999999999999,eV/atom,
Fe$_{2}$(MoO$_{4}$)$_{3}$,2.6649000000000003,eV/atom,
SrThBr$_{6}$,2.0636,eV/atom,
WF$_{6}$,5.3735,eV/atom,
Sr$_{3}$Sn$_{2}$O$_{7}$,2.1597,eV/atom,
TlPb$_{8}$Br$_{9}$O$_{4}$,2.983,eV/atom,
K$_{4}$CO$_{4}$,2.5006000000000004,eV/atom,
TiCuGe,0.0,eV/atom,
PtS$_{2}$(NO$_{2}$)$_{4}$,0.09860000000000002,eV/atom,
CsTmCl$_{3}$,0.0,eV/atom,
K$_{2}$LaP$_{2}$Se$_{7}$,1.4926,eV/atom,
YAlZn,0.0,eV/atom,
ErGeBiO$_{5}$,3.3459000000000003,eV/atom,
Ho$_{6}$CoTe$_{2}$,0.0,eV/atom,
Dy$_{2}$CuTe$_{5}$Br$_{2}$O$_{13}$,0.0,eV/atom,
CsBa(BO$_{2}$)$_{3}$,4.0415,eV/atom,
BaCO$_{3}$,4.3837,eV/atom,
Nd$_{2}$(WO$_{4}$)$_{3}$,3.9463,eV/atom,
Mn$_{7}$C$_{3}$,0.0,eV/atom,
K$_{2}$Ba(Ge$_{4}$O$_{9}$)$_{2}$,2.9969,eV/atom,
BeH$_{8}$SO$_{8}$,5.4388,eV/atom,
Rb$_{2}$TaCuSe$_{4}$,2.0000999999999998,eV/atom,
Sr$_{3}$(SnP$_{2}$)$_{2}$,0.9870999999999994,eV/atom,
Ba(POs)$_{2}$,0.0,eV/atom,
Al$_{6}$Tc,0.0,eV/atom,
YMnGe,0.0,eV/atom,
Sr$_{9}$YbV$_{7}$O$_{28}$,0.0,eV/atom,
Y$_{2}$C,0.0,eV/atom,
KSn,0.7336999999999998,eV/atom,
CsCu$_{2}$Cl$_{3}$,1.8237999999999999,eV/atom,
PaSb$_{2}$,0.0,eV/atom,
Ag(CO)$_{2}$,0.7213,eV/atom,
BaU(SiO$_{4}$)$_{2}$,2.3858999999999995,eV/atom,
SiC$_{4}$(SN)$_{4}$,3.5356,eV/atom,
SmMn$_{2}$,0.0,eV/atom,
Yb$_{3}$SnC,0.013900000000000023,eV/atom,
Rb$_{2}$AgI$_{3}$,2.5761000000000003,eV/atom,
Mo(BrO)$_{2}$,1.4603,eV/atom,
La$_{2}$Ge$_{2}$O$_{7}$,3.7144,eV/atom,
YbAlPd,0.0,eV/atom,
Ba$_{5}$Mn$_{3}$ClO$_{12}$,1.7299,eV/atom,
Ba$_{2}$Mg(BO$_{2}$)$_{6}$,5.2119,eV/atom,
DyGePt,0.05039999999999978,eV/atom,
S$_{2}$O$_{5}$F$_{2}$,5.5878,eV/atom,
Si$_{2}$NCl$_{5}$,5.0863,eV/atom,
K$_{2}$Ge$_{2}$Se$_{5}$,1.8029,eV/atom,
Cs$_{4}$Nb$_{2}$Si$_{8}$O$_{23}$,3.7337999999999996,eV/atom,
SrGe$_{4}$O$_{9}$,3.0645000000000002,eV/atom,
CdS$_{2}$O$_{7}$,4.036099999999999,eV/atom,
NaLaMgWO$_{6}$,3.1531,eV/atom,
NiAs$_{2}$S$_{6}$(NF$_{3}$)$_{6}$,2.7732,eV/atom,
K$_{2}$Zr$_{7}$Cl$_{18}$,0,eV/atom,
F$_{2}$,2.7932,eV/atom,
SbBr$_{3}$,3.113,eV/atom,
Ti$_{3}$Pt,0.0,eV/atom,
BaCSNCl,4.1175999999999995,eV/atom,
HgHOF,1.448,eV/atom,
RuS$_{3}$Cl$_{8}$,1.8601999999999999,eV/atom,
Na$_{5}$HfAs$_{3}$,0.9022000000000001,eV/atom,
CdHg$_{3}$C$_{6}$S$_{6}$(N$_{3}$Cl)$_{2}$,2.0621,eV/atom,
Cd(IO$_{3}$)$_{2}$,3.2417,eV/atom,
K$_{2}$AgC$_{3}$(SN)$_{3}$,3.206,eV/atom,
CoSnF$_{6}$,2.5882,eV/atom,
Tb$_{3}$Ge$_{5}$,0,eV/atom,
Sr$_{2}$P$_{6}$Rh$_{7}$,0.0,eV/atom,
OsF$_{6}$,0.0,eV/atom,
Nb$_{3}$Se$_{10}$Br$_{3}$,1.2044000000000001,eV/atom,
Mg$_{3}$B$_{11}$(H$_{3}$O$_{8}$)$_{3}$,3.8636999999999997,eV/atom,
PrSi$_{2}$,0.0,eV/atom,
Ba$_{2}$HoSbO$_{6}$,3.4155,eV/atom,
SiO$_{2}$,0.6553999999999998,eV/atom,
TmNiO$_{3}$,0.07419999999999982,eV/atom,
LiBC,0.8428000000000004,eV/atom,
Cd$_{3}$(PO$_{4}$)$_{2}$,2.2063,eV/atom,
K$_{4}$Ru(NO$_{2}$)$_{6}$,2.3638,eV/atom,
La$_{2}$Ni$_{2}$I,0.0,eV/atom,
Cs$_{2}$KNiF$_{6}$,0.0,eV/atom,
Y(CuSi)$_{2}$,0.0,eV/atom,
Nd$_{5}$Ir$_{3}$,0.0,eV/atom,
H$_{2}$,6.593999999999999,eV/atom,
BaFe(Si$_{2}$O$_{5}$)$_{2}$,3.5786,eV/atom,
Li$_{4}$Ge$_{5}$O$_{12}$,2.9262000000000006,eV/atom,
YbAlAu,0.0,eV/atom,
PbCl$_{2}$,3.7939,eV/atom,
Eu(SiAu)$_{2}$,0.0,eV/atom,
LiLa$_{2}$HO$_{3}$,1.9418999999999995,eV/atom,
FeSiP$_{3}$O$_{11}$,2.8624,eV/atom,
CsH$_{18}$RuN$_{6}$(ClO$_{2}$)$_{4}$,0,eV/atom,
NdMg$_{3}$,0.0,eV/atom,
Sc$_{3}$Co,0.0,eV/atom,
Th(InBr$_{3}$)$_{2}$,2.7543,eV/atom,
Li$_{3}$Ga(BO$_{3}$)$_{2}$,4.1585,eV/atom,
LaCo$_{8}$P$_{5}$,0.0,eV/atom,
DyPO$_{4}$,5.887,eV/atom,
Zn$_{3}$CdS$_{4}$,1.6797999999999997,eV/atom,
As$_{2}$S$_{3}$(NF$_{6}$)$_{2}$,2.2041,eV/atom,
LaAg(PO$_{3}$)$_{4}$,3.7647999999999993,eV/atom,
Al(VS$_{2}$)$_{4}$,0.0,eV/atom,
Na$_{2}$BiAu,0.36960000000000015,eV/atom,
CaH$_{8}$(ClO$_{2}$)$_{2}$,5.3176,eV/atom,
YbGa$_{6}$,0.0,eV/atom,
SrIF,4.3111999999999995,eV/atom,
Ti$_{2}$MnGa,0.05250000000000021,eV/atom,
La(SiAg)$_{2}$,0.0,eV/atom,
YbIn$_{3}$,0.0,eV/atom,
La$_{2}$Mo$_{4}$O$_{15}$,3.2376999999999994,eV/atom,
Zn$_{2}$P$_{2}$O$_{7}$,3.6862,eV/atom,
Tc$_{3}$B,0.0,eV/atom,
K$_{5}$Eu$_{2}$Si$_{4}$O$_{13}$F,0.0,eV/atom,
AsXeF$_{7}$,2.8579,eV/atom,
BeH$_{2}$,5.3260000000000005,eV/atom,
SmSnAu,0.09699999999999953,eV/atom,
Ti$_{2}$CoSi,0.0,eV/atom,
OsBr$_{4}$,0.0,eV/atom,
H$_{4}$N$_{2}$O$_{3}$,3.1871,eV/atom,
TbTiSi,0.0,eV/atom,
HfSiMo,0.0,eV/atom,
Pt$_{3}$PbC,0.0,eV/atom,
Ca$_{3}$AsCl$_{3}$,1.8384,eV/atom,
Ca$_{2}$InPt$_{2}$,0.0,eV/atom,
AuSe,0.26239999999999997,eV/atom,
P$_{2}$H$_{19}$C$_{6}$I$_{2}$NCl$_{4}$,2.1525000000000003,eV/atom,
Rb$_{3}$NiF$_{7}$,0.8116,eV/atom,
YZn$_{5}$,0.0,eV/atom,
Na$_{3}$Cl$_{2}$,0.0,eV/atom,
Sr$_{2}$Al$_{3}$Si$_{3}$HO$_{13}$,4.9047,eV/atom,
Ba$_{3}$(Si$_{2}$P$_{3}$)$_{2}$,0.4059999999999997,eV/atom,
Mn(ReO$_{5}$)$_{2}$,0.09339999999999993,eV/atom,
CsBS$_{3}$O$_{11}$,5.643800000000001,eV/atom,
Ta$_{2}$N$_{3}$O,0.0,eV/atom,
AgSbH$_{2}$C$_{2}$(NF$_{3}$)$_{2}$,2.8326000000000002,eV/atom,
CrSbS$_{3}$,0.5817999999999994,eV/atom,
Nd$_{2}$As$_{6}$Xe$_{5}$F$_{46}$,2.6927000000000003,eV/atom,
Ba$_{2}$Zr$_{6}$BCl$_{17}$,1.0883000000000003,eV/atom,
Na$_{5}$H$_{29}$(IO$_{12}$)$_{2}$,1.8001,eV/atom,
Ga$_{2}$PbSe$_{4}$,1.7599,eV/atom,
Cr$_{2}$HgO$_{7}$,2.0069,eV/atom,
Ce$_{2}$NCl$_{3}$,0.0,eV/atom,
Ca$_{4}$Si$_{2}$H$_{2}$CO$_{11}$,4.6256,eV/atom,
GdIn$_{2}$Rh,0.005499999999999616,eV/atom,
SrO,2.7428000000000003,eV/atom,
Th$_{2}$Ru$_{6}$C$_{5}$,0.0,eV/atom,
SiNi$_{2}$As,0.0,eV/atom,
LiIn$_{2}$Ru,0.0,eV/atom,
Na$_{2}$Y$_{2}$B$_{2}$O$_{7}$,4.3727,eV/atom,
Pr(PdO$_{2}$)$_{2}$,0.0,eV/atom,
Os(CO)$_{4}$,2.9232000000000005,eV/atom,
Ta$_{3}$Al$_{2}$CoC,0.0,eV/atom,
Cu$_{3}$N,0.1899999999999995,eV/atom,
Cr$_{4}$As$_{3}$,0.0,eV/atom,
CaP$_{3}$H$_{16}$(NO$_{4}$)$_{3}$,0.0,eV/atom,[Ca+2].O=P([O-])([O-])OP(=O)([O-])OP(=O)([O-])[O-].O.O.[NH4+].[NH4+].[NH4+]
YbVO$_{3}$,0.3999999999999999,eV/atom,
NaTaGeO$_{5}$,3.35,eV/atom,
Sm$_{2}$InNi$_{2}$,0.0,eV/atom,
Ba$_{2}$AlH$_{7}$,2.96,eV/atom,
TlCr$_{5}$S$_{8}$,0.1426999999999996,eV/atom,
UNiAs$_{2}$,0.0,eV/atom,
Zr$_{3}$Cd$_{2}$,0.0,eV/atom,
Cu$_{2}$SiPbS$_{4}$,1.3388,eV/atom,
HfAlNi,0.0,eV/atom,
HoGe$_{2}$Pt,0.0,eV/atom,
Na$_{2}$Ca$_{3}$(Si$_{3}$O$_{8}$)$_{2}$,4.3043,eV/atom,
U$_{2}$IrC$_{2}$,0.0,eV/atom,
Ba(InTe$_{2}$)$_{2}$,0.9628000000000001,eV/atom,
Ce$_{2}$Ga$_{12}$Pd,0.0,eV/atom,
NdGeRh,0.0,eV/atom,
CsSn,1.1371000000000002,eV/atom,
Sm$_{2}$MnGa$_{6}$,0.0,eV/atom,
ThBiTe,0.0,eV/atom,
Ce$_{14}$Si$_{11}$Ni$_{6}$,0.0,eV/atom,
RbAl$_{3}$(P$_{3}$O$_{10}$)$_{2}$,5.4378,eV/atom,
KPH$_{2}$O$_{3}$,3.9123,eV/atom,
Cs$_{3}$CdI$_{5}$,2.7925,eV/atom,
Na$_{2}$Sr(PO$_{3}$)$_{4}$,5.3329,eV/atom,
Ba$_{4}$Tb$_{2}$Cd$_{3}$S$_{10}$,2.1033000000000004,eV/atom,
YGa$_{6}$,0.0,eV/atom,
Zn$_{2}$BiPO$_{6}$,2.8034999999999997,eV/atom,
Cr$_{3}$Ga,0.0,eV/atom,
Tb$_{2}$Mo$_{2}$O$_{7}$,0.0,eV/atom,
P$_{4}$SeO$_{7}$,3.5458,eV/atom,
TaAgO$_{3}$,1.9156000000000004,eV/atom,
DyCu$_{5}$,0.0,eV/atom,
Yb$_{2}$Te$_{5}$O$_{13}$,0.16310000000000002,eV/atom,
Ho$_{3}$GaC,0.0,eV/atom,
Er$_{2}$B$_{2}$Cl$_{2}$O$_{5}$,5.0806000000000004,eV/atom,
NaFe$_{2}$H$_{3}$(SO$_{4}$)$_{2}$,3.7334,eV/atom,
Mn$_{7}$CdO$_{12}$,0.0,eV/atom,
CdI$_{2}$,2.3639,eV/atom,
BaY$_{4}$Si$_{5}$O$_{17}$,4.8104,eV/atom,
W$_{3}$Br$_{7}$,0.0,eV/atom,
LuU$_{4}$S$_{5}$O$_{4}$,0.0,eV/atom,
RbCuC$_{2}$,1.8853,eV/atom,
KBiF$_{6}$,2.6029999999999998,eV/atom,
YGeRh,0.0,eV/atom,
MoPCl$_{8}$O,1.484,eV/atom,
GaSi$_{3}$C$_{3}$N,2.6052,eV/atom,
Pr$_{3}$Se$_{4}$,0.0,eV/atom,
GeS$_{2}$,0.9558,eV/atom,
K$_{4}$Zr$_{6}$CBr$_{18}$,1.1617000000000002,eV/atom,
Rb$_{2}$SnHgTe$_{4}$,1.1515,eV/atom,
HoAgS$_{2}$,1.7807999999999997,eV/atom,
PrPd$_{2}$,0.0,eV/atom,
LaGa$_{2}$Co$_{3}$,0.0,eV/atom,
Er$_{7}$IrI$_{12}$,0.3803000000000005,eV/atom,
Al$_{3}$FeSi$_{2}$,0.0,eV/atom,
LaAsRuO,0.0,eV/atom,
ErTl$_{3}$,0.0,eV/atom,
CeInRh,0.0,eV/atom,
CSO,4.8952,eV/atom,
Ti$_{3}$Sb,0.0,eV/atom,
Y$_{2}$Ti$_{2}$O$_{7}$,2.718,eV/atom,
B$_{2}$H$_{5}$,6.3448,eV/atom,
Te$_{7}$As$_{5}$I,0.30239999999999956,eV/atom,
Tl$_{5}$(Cu$_{7}$Se$_{5}$)$_{2}$,0.0,eV/atom,
Na$_{2}$CoGeO$_{4}$,1.5370000000000001,eV/atom,
Nd$_{3}$S$_{2}$Br$_{5}$,2.9614000000000003,eV/atom,
NClO$_{6}$,1.4162,eV/atom,
Ba$_{2}$DyReO$_{6}$,0.0,eV/atom,
ErFeC$_{2}$,0.0,eV/atom,
Bi$_{12}$PbO$_{20}$,1.6818999999999997,eV/atom,
CsSi$_{2}$BO$_{6}$,5.258900000000001,eV/atom,
Yb$_{8}$In$_{3}$,0.0,eV/atom,
NaCoP$_{3}$(H$_{4}$O$_{5}$)$_{2}$,3.1353,eV/atom,
RePCl$_{9}$,0.8379000000000001,eV/atom,
Sm$_{10}$S$_{14}$O,1.8499999999999996,eV/atom,
Y$_{6}$Ni$_{20}$P$_{13}$,0.0,eV/atom,
Ho(SiRh)$_{2}$,0.0,eV/atom,
CaGeO$_{3}$,2.0247,eV/atom,
NbZn$_{16}$,0.0,eV/atom,
Li$_{3}$AuO$_{3}$,1.8710999999999998,eV/atom,
Zr$_{3}$Al,0.0,eV/atom,
Zr$_{2}$CuH$_{2}$,0.0,eV/atom,
Ca$_{3}$Pd,0.0,eV/atom,
LiSn$_{4}$Au$_{3}$,0.0,eV/atom,
Ba$_{5}$Dy$_{8}$Zn$_{4}$O$_{21}$,3.3654,eV/atom,
Si(Hg$_{2}$S$_{3}$)$_{2}$,0.4393,eV/atom,
TmNi,0.0,eV/atom,
Rb$_{7}$Au$_{5}$O$_{2}$,0.6267999999999999,eV/atom,
Co(SiSe$_{2}$)$_{2}$,0.0,eV/atom,
BeCN$_{2}$,3.8512999999999993,eV/atom,
Er$_{2}$PbSe$_{4}$,1.8036000000000003,eV/atom,
K$_{2}$MoC$_{2}$O$_{9}$,2.7211999999999996,eV/atom,
YGa,0.0,eV/atom,
TaPd,0.0,eV/atom,
Bi$_{6}$Rh$_{12}$O$_{29}$,0.03680000000000039,eV/atom,
CaAl$_{2}$O$_{4}$,4.9819,eV/atom,
U(Cr$_{3}$P$_{2}$)$_{2}$,0.0,eV/atom,
RbLi$_{7}$(SiO$_{4}$)$_{2}$,4.718,eV/atom,
V$_{2}$CoS$_{4}$,0.0,eV/atom,
MnGa$_{6}$,0.0,eV/atom,
AuCN,1.8408,eV/atom,
CsZr$_{2}$(PO$_{4}$)$_{3}$,4.3450999999999995,eV/atom,
Ca$_{3}$(GeP$_{2}$)$_{2}$,0.7361999999999997,eV/atom,
N$_{2}$,0.0,eV/atom,
Mg$_{2}$B$_{24}$C,2.4909,eV/atom,
Na$_{2}$In$_{5}$Au$_{6}$,0.0,eV/atom,
MnNi(BiO$_{3}$)$_{2}$,0.5164999999999997,eV/atom,
Ca$_{2}$AlH$_{8}$S$_{2}$Cl(O$_{6}$F)$_{2}$,5.5831,eV/atom,
In$_{7}$Te$_{10}$,0.8150999999999997,eV/atom,
Na$_{8}$(CuO$_{2}$)$_{5}$,0.0,eV/atom,
S,2.3573,eV/atom,
YB$_{2}$Ru$_{3}$,0.0,eV/atom,
LiB$_{3}$O$_{5}$,6.3532,eV/atom,
NaV$_{2}$O$_{4}$,0.0,eV/atom,
LuSiIr,0.0,eV/atom,
H$_{5}$C$_{2}$NO$_{3}$,4.7722,eV/atom,O=CO.O=CN
KAlH$_{4}$,4.8048,eV/atom,
TmCd,0.0,eV/atom,
Ga$_{2}$PdBr$_{8}$,1.6095000000000002,eV/atom,
Lu(FeSi)$_{2}$,0.0,eV/atom,
H$_{2}$O,5.5287,eV/atom,
KAs$_{4}$IO$_{6}$,2.3453999999999997,eV/atom,
HC$_{2}$N$_{3}$,4.3949,eV/atom,
Co$_{3}$(BO$_{3}$)$_{2}$,2.1624,eV/atom,
CoCuO$_{2}$,0.0862999999999996,eV/atom,
Yb$_{11}$GaSb$_{9}$,0.6382000000000003,eV/atom,
BaAlF$_{5}$,7.083500000000001,eV/atom,
GaBr$_{2}$,3.3765,eV/atom,
Cr$_{2}$FeO$_{4}$,0.0,eV/atom,
WS$_{2}$(NO)$_{2}$,0.03780000000000028,eV/atom,
RhC$_{2}$ClO$_{2}$,1.7196,eV/atom,
Tb$_{3}$(MnC$_{3}$)$_{2}$,0.0,eV/atom,
Cr$_{2}$Te$_{3}$,0.0,eV/atom,
Tl$_{2}$SeO$_{4}$,3.2312000000000003,eV/atom,
MgAsH$_{15}$O$_{11}$,4.1585,eV/atom,
CdH$_{6}$C$_{2}$I$_{2}$(NO)$_{2}$,2.7723,eV/atom,[Cd+2].[I-].[I-].O=CN.O=CN
Ce$_{2}$Fe(SeO)$_{2}$,0.0,eV/atom,[Fe+2].[Ce+3].[Ce+3].O=[SeH-](=O)=[Se].O=[SeH-](=O)=[Se].O=[SeH-](=O)=[Se].O=[SeH-](=O)=[Se].O=[SeH-](=O)=[Se].O=[SeH-](=O)=[Se].O=[SeH-](=O)=[Se].O=[SeH-](=O)=[Se]
HfGeMo,0.0,eV/atom,
Tc(Br$_{3}$O)$_{2}$,0.0,eV/atom,
YSb$_{2}$,0.0,eV/atom,
RbAuI$_{3}$,0.7023999999999999,eV/atom,
Ho$_{2}$Ni$_{12}$P$_{7}$,0.0,eV/atom,
LiCdP,0.0,eV/atom,
Ce$_{3}$Si$_{6}$N$_{11}$,0.0,eV/atom,
WCl$_{3}$O,1.7189999999999999,eV/atom,
TbAsPd,0.051000000000000156,eV/atom,
K$_{2}$SnBr$_{6}$,1.6057000000000001,eV/atom,
CsUCuS$_{3}$,0,eV/atom,