formula,Property band_gap,Property band_gap units,Property SMILES
BaNd$_{2}$ZnS$_{5}$,1.1406999999999994,eV/atom,
WC,0.0,eV/atom,
Ca$_{2}$Ni$_{7}$,0.0,eV/atom,
CdAsPd$_{5}$,0.0,eV/atom,
Li$_{2}$TiGeO$_{5}$,3.4593000000000003,eV/atom,
ThH$_{2}$,0.0,eV/atom,
BaCrF$_{5}$,3.5888,eV/atom,
PH$_{8}$C$_{2}$NO$_{2}$,5.0127999999999995,eV/atom,
CrCuO$_{2}$,1.6653000000000002,eV/atom,
Cd(In$_{2}$I$_{3}$)$_{2}$,1.5345,eV/atom,
GaFe$_{3}$,0.0,eV/atom,
Nd$_{3}$(BN$_{2}$)$_{2}$,0.0,eV/atom,
K$_{6}$U$_{2}$Mo$_{4}$O$_{21}$,2.1736,eV/atom,
CsYZnTe$_{3}$,1.4718,eV/atom,
C$_{2}$SNCl$_{2}$F$_{5}$,3.4123,eV/atom,FC(F)(F)C(F)(F)N=S(Cl)Cl
H$_{22}$IrC$_{3}$(N$_{3}$O$_{4}$)$_{2}$,2.7618,eV/atom,
ReO$_{3}$,0.0,eV/atom,
Ca$_{2}$PI,1.7000000000000002,eV/atom,
La(TmS$_{2}$)$_{3}$,1.0598999999999998,eV/atom,
Fe$_{3}$WC$_{14}$(SO$_{7}$)$_{2}$,1.5415,eV/atom,
Er$_{5}$Ga$_{3}$,0.0,eV/atom,
Na(Cu$_{2}$Sb)$_{2}$,0.0,eV/atom,
CoTeO$_{3}$,2.1368,eV/atom,
As$_{2}$Pb(XeF$_{6}$)$_{3}$,2.6752000000000002,eV/atom,
Ba$_{8}$Ga$_{7}$,0.0,eV/atom,
SrCd(PO$_{3}$)$_{4}$,4.4041,eV/atom,
K$_{2}$NaGaP$_{2}$,1.5764999999999998,eV/atom,
Li$_{2}$HN,2.6355,eV/atom,
Ca$_{3}$Au$_{4}$,0.0,eV/atom,
Dy$_{2}$Al,0.0,eV/atom,
Nd$_{2}$In$_{8}$Co,0.0,eV/atom,
CoBiPO$_{5}$,2.8385999999999996,eV/atom,
LaHg,0.0,eV/atom,
KMnP$_{3}$HO$_{10}$,1.1088,eV/atom,
VP$_{2}$H$_{8}$(NO$_{4}$)$_{2}$,2.5778,eV/atom,
Ba(AlCl$_{4}$)$_{2}$,5.3835999999999995,eV/atom,
Ba(YTe$_{2}$)$_{2}$,0.8059000000000003,eV/atom,
Tb$_{2}$Mg$_{3}$Ni$_{2}$,0.0,eV/atom,
Si$_{2}$Ni$_{6}$B,0.0,eV/atom,
Sb,0.0,eV/atom,
UNiSn,0.013399999999998968,eV/atom,
CuBi(WO$_{4}$)$_{2}$,1.2861000000000002,eV/atom,
Cs$_{3}$Bi,0.18149999999999977,eV/atom,
Hf$_{3}$Zn$_{3}$C,0.0,eV/atom,
Ba$_{2}$TaCrO$_{6}$,2.1562,eV/atom,
Sr$_{11}$(OsO$_{6}$)$_{4}$,0.0,eV/atom,
AsRu,0.0,eV/atom,
AlSb,1.2272999999999996,eV/atom,
Nb$_{3}$Al,0.0,eV/atom,
PbS,0.008399999999999963,eV/atom,
PrVGe$_{3}$,0.0,eV/atom,
CsRe$_{3}$(S$_{2}$Br)$_{2}$,1.8861999999999999,eV/atom,
KBS$_{2}$,2.7676000000000003,eV/atom,
Al$_{7}$CoCu$_{2}$,0.0,eV/atom,
VBiO$_{4}$,2.528,eV/atom,
BaP$_{2}$(HO$_{2}$)$_{4}$,5.5979,eV/atom,
Na$_{4}$TiP$_{2}$O$_{9}$,2.8289,eV/atom,
Fe$_{3}$H$_{4}$(S$_{2}$O$_{9}$)$_{2}$,1.1843000000000001,eV/atom,
Al$_{13}$(CrSi)$_{4}$,0.0,eV/atom,
ZrH$_{2}$,0.0,eV/atom,
BAsO$_{4}$,4.2615,eV/atom,
NaMoP$_{2}$O$_{7}$,3.9664,eV/atom,
Nb$_{6}$Tl$_{3}$SBr$_{17}$,0.2920999999999998,eV/atom,
V$_{2}$Cd$_{2}$O$_{7}$,2.5559000000000003,eV/atom,
Ag$_{4}$Mo$_{2}$Se$_{3}$O$_{16}$,1.6559000000000001,eV/atom,
Mg(GaO$_{2}$)$_{2}$,3.1080999999999994,eV/atom,
Sr$_{3}$Li$_{4}$(SiN$_{3}$)$_{2}$,2.2732,eV/atom,
K$_{2}$Hg$_{3}$(GeS$_{4}$)$_{2}$,1.5520999999999998,eV/atom,
Nd$_{2}$Ge$_{2}$O$_{7}$,3.4278000000000004,eV/atom,
CuH$_{4}$C$_{3}$ClO$_{2}$,2.5729,eV/atom,
Ba$_{3}$Er$_{2}$(PS$_{4}$)$_{4}$,2.3777000000000004,eV/atom,
Ce$_{3}$CuSiS$_{7}$,0.0,eV/atom,
ErB$_{2}$Ir$_{3}$,0.0,eV/atom,
CsBiO$_{2}$,2.3232,eV/atom,
CsO$_{2}$,0.0,eV/atom,
Sn$_{2}$Rh,0.0,eV/atom,
Sr$_{4}$In$_{13}$Au$_{9}$,0.0,eV/atom,
IF$_{3}$,2.1132,eV/atom,FI(F)F
H$_{3}$ClO$_{5}$,5.4698,eV/atom,
CeSiNi,0.0,eV/atom,
Y(Mo$_{3}$Se$_{4}$)$_{2}$,0.0,eV/atom,
Na(CO)$_{3}$,1.0804,eV/atom,
Ta$_{4}$CoP,0.0,eV/atom,
NiAs$_{2}$,0.0,eV/atom,
MgMo$_{2}$O$_{7}$,3.6742999999999997,eV/atom,
Ag$_{8}$SnS$_{6}$,0.5350999999999999,eV/atom,
K$_{4}$In$_{3}$Ge$_{20}$,0.0,eV/atom,
Gd(GePd)$_{2}$,0.0019000000000000128,eV/atom,
Hf$_{6}$NiSb$_{2}$,0.0,eV/atom,
ReBiO$_{4}$,0.0,eV/atom,
BC$_{5}$,0.0,eV/atom,
NaV$_{6}$O$_{11}$,0.0,eV/atom,
CeCrO$_{3}$,0.01130000000000031,eV/atom,
MgSiO$_{3}$,5.0524,eV/atom,
Li$_{4}$CO$_{4}$,5.351,eV/atom,
HoGa$_{3}$,0.0,eV/atom,
U$_{2}$BiN$_{2}$,0.0,eV/atom,
AlPO$_{4}$,5.671200000000001,eV/atom,
Cs$_{3}$Cu$_{2}$Br$_{5}$,2.3785,eV/atom,
Rb$_{5}$CeCo$_{2}$(NO$_{2}$)$_{12}$,0.0,eV/atom,
CdI$_{2}$,2.3365,eV/atom,
TbSnAu,0.0,eV/atom,
YbCu$_{5}$,0.0,eV/atom,
NiS,0.0,eV/atom,
PrCr$_{2}$Si$_{2}$C,0.0,eV/atom,
TbZrSb,0.0,eV/atom,
Sc$_{7}$P$_{3}$,0.0,eV/atom,
H$_{24}$C$_{8}$S(NO$_{2}$)$_{2}$,3.7835,eV/atom,
In$_{5}$Bi$_{3}$,0.0,eV/atom,
Gd$_{2}$CCl$_{2}$,0.4887999999999999,eV/atom,
V$_{2}$Ge(O$_{2}$F)$_{2}$,1.7969,eV/atom,
La(MnSi)$_{2}$,0.0,eV/atom,
LuN,0.24209999999999976,eV/atom,
Na$_{2}$Sn$_{3}$Au,0.0,eV/atom,
Rb$_{9}$Fe$_{2}$Se$_{7}$,0.42880000000000007,eV/atom,
Na$_{4}$CaSn$_{6}$,0.0,eV/atom,
NdFeAsO,0.0,eV/atom,
Sr$_{3}$YRhO$_{6}$,2.1512000000000002,eV/atom,
InMoS$_{2}$,0.0,eV/atom,
CsPrCdSe$_{3}$,1.9664000000000001,eV/atom,
Na$_{2}$Mn(SO$_{4}$)$_{2}$,4.376,eV/atom,
HoSiRu$_{2}$C,0.0,eV/atom,
SmFe$_{5}$,0.0,eV/atom,
H$_{12}$RuC$_{4}$S$_{2}$N$_{2}$Cl$_{2}$O$_{5}$,2.0347,eV/atom,
K$_{4}$ZnH$_{6}$(S$_{2}$O$_{9}$)$_{2}$,0.4794,eV/atom,
Si$_{3}$Pt$_{2}$,0.0,eV/atom,
Co$_{2}$W$_{4}$C,0.0,eV/atom,
Ca(GaO$_{2}$)$_{2}$,2.9856,eV/atom,
Co$_{2}$SiO$_{4}$,2.4800999999999997,eV/atom,
Sm(ErS$_{2}$)$_{3}$,1.0560999999999998,eV/atom,
SiSbPt,0.2099000000000002,eV/atom,
CdSnO$_{3}$,0.9762,eV/atom,
BaCaPb,0.2756000000000003,eV/atom,
DyZnRh,0.0,eV/atom,
BH$_{2}$OF$_{3}$,7.5534,eV/atom,
Ba$_{5}$Co$_{5}$O$_{14}$,0.0,eV/atom,
Sc$_{2}$(WO$_{4}$)$_{3}$,4.126,eV/atom,
B$_{12}$H$_{21}$C$_{4}$S$_{2}$I,4.2795,eV/atom,
MoN,0.0,eV/atom,
Sr$_{5}$(Br$_{4}$Cl)$_{2}$,4.443899999999999,eV/atom,
CaInPd,0.0,eV/atom,
HgC$_{2}$(SN)$_{2}$,2.1419,eV/atom,
As$_{3}$(HO$_{2}$)$_{5}$,3.0438,eV/atom,
CrI$_{2}$,0.01529999999999987,eV/atom,
HoTl,0.0,eV/atom,
Cs(TeO$_{3}$)$_{2}$,0.7305000000000001,eV/atom,
Cs$_{6}$Bi$_{4}$O$_{9}$,2.3603,eV/atom,
SmZnPd,0.0,eV/atom,
Pr$_{3}$InSe$_{6}$,0.6879000000000004,eV/atom,
CoAgO$_{2}$,1.4273000000000002,eV/atom,
Sb$_{7}$F$_{29}$,3.5953,eV/atom,
Ag$_{3}$AsS$_{3}$,1.1736,eV/atom,
TmSb(PbO$_{3}$)$_{2}$,2.3485000000000005,eV/atom,
Tm$_{2}$S$_{3}$,2.5249,eV/atom,
Ca$_{3}$AlN$_{3}$,2.4572999999999996,eV/atom,
BaErCuS$_{3}$,1.1586999999999996,eV/atom,
Ga$_{2}$BiSe$_{4}$,1.8901000000000001,eV/atom,
MgNb$_{2}$,0.0,eV/atom,
K$_{4}$H$_{6}$C$_{2}$O$_{9}$,4.1658,eV/atom,
CoH$_{5}$SeClO$_{5}$,2.9132000000000002,eV/atom,
CsKNa$_{2}$Li$_{12}$(SiO$_{4}$)$_{4}$,4.722099999999999,eV/atom,
Ca(AuO$_{2}$)$_{2}$,1.6618000000000004,eV/atom,
Re$_{2}$H$_{6}$PbC(NO$_{5}$)$_{2}$,3.1303,eV/atom,
NdBi$_{2}$ClO$_{4}$,1.1834999999999996,eV/atom,
Pu$_{2}$Co,0.0,eV/atom,
Ni$_{20}$(SnB$_{2}$)$_{3}$,0.0,eV/atom,
Rb$_{2}$NaErF$_{6}$,6.4981,eV/atom,
BaHfS$_{3}$,1.2421000000000002,eV/atom,
CsHoZnTe$_{3}$,1.3805000000000005,eV/atom,
B,1.4314,eV/atom,
HfRu$_{3}$,0.0,eV/atom,
KLuS$_{2}$,2.4307,eV/atom,
Dy$_{5}$CoSb$_{2}$,0.0,eV/atom,
TiTl$_{2}$F$_{6}$,3.871,eV/atom,
Fe(Mo$_{3}$S$_{4}$)$_{2}$,0.0,eV/atom,
ZrS$_{2}$,1.0478000000000003,eV/atom,
AlBr$_{3}$,4.0967,eV/atom,
Cr$_{2}$S$_{3}$,0.0,eV/atom,
Ca$_{2}$Ni$_{10}$H,0.0,eV/atom,
TiAg$_{2}$O$_{3}$,1.2656999999999998,eV/atom,
Hg$_{4}$SbO$_{6}$,0.0,eV/atom,
Ba$_{11}$Bi$_{10}$,0.0,eV/atom,
PS$_{2}$N(Cl$_{3}$O$_{2}$)$_{2}$,2.6486,eV/atom,
YZnPd,0.0,eV/atom,
ScPIr,0.0,eV/atom,
UPt$_{4}$Au,0.0,eV/atom,
BaNa(PO$_{3}$)$_{3}$,5.3055,eV/atom,
Li$_{3}$TaO$_{4}$,4.5636,eV/atom,
BaSiF$_{6}$,7.4159,eV/atom,
Mn$_{2}$ZnAs$_{2}$,0.0,eV/atom,
PH$_{16}$C$_{6}$S$_{2}$NO$_{4}$,4.4731000000000005,eV/atom,O=S(=O)(P(N(CC)CC)S(=O)(=O)C)C
K$_{3}$Ir(NO$_{2}$)$_{6}$,0.0,eV/atom,
AlV$_{2}$C,0.0,eV/atom,
Ba$_{2}$CrO$_{4}$,1.7988999999999997,eV/atom,
Cs$_{2}$Hg$_{3}$H$_{2}$I$_{8}$O,1.7631,eV/atom,
NaAu(SO$_{4}$)$_{2}$,1.7422,eV/atom,
KDy(SeO$_{4}$)$_{2}$,3.4722,eV/atom,
Ta$_{2}$Ni,0.0,eV/atom,
ErAg(WO$_{4}$)$_{2}$,3.1893000000000002,eV/atom,
NaSbS$_{2}$,0.45289999999999964,eV/atom,
TaI$_{4}$,0.5572000000000001,eV/atom,
CsYb$_{3}$Se$_{4}$,0.0,eV/atom,
K$_{6}$Na$_{3}$GaSb$_{4}$,0.6974,eV/atom,
In$_{5}$S$_{4}$,0.0,eV/atom,
Ce(AlGa)$_{2}$,0.0,eV/atom,
KDy(PO$_{3}$)$_{4}$,5.4718,eV/atom,
Li$_{4}$Al$_{3}$Ge$_{3}$IO$_{12}$,3.1208,eV/atom,
Mg$_{7}$Sc,0.0,eV/atom,
Ga$_{4}$Hg$_{11}$(AsBr$_{4}$)$_{4}$,0.8595999999999999,eV/atom,
BaLiCrF$_{6}$,3.9518999999999997,eV/atom,
PrMn$_{2}$O$_{5}$,1.0968999999999998,eV/atom,
Sb$_{2}$TeF$_{14}$,3.9650999999999996,eV/atom,
La(Ge$_{2}$Rh$_{3}$)$_{2}$,0.0,eV/atom,
Dy$_{2}$InAu$_{2}$,0.0,eV/atom,
KCr$_{2}$AgO$_{7}$,1.6229,eV/atom,
Ho$_{2}$Cu(GeO$_{3}$)$_{4}$,0.8667,eV/atom,
Ca$_{19}$In$_{8}$N$_{7}$,0.0,eV/atom,
WO$_{3}$,1.1401,eV/atom,
NaH$_{3}$CN$_{4}$O,4.8789,eV/atom,[Na+].O=C([O-])C1=NN=NN1.O
CdCN$_{2}$,2.2933,eV/atom,
MgAlSi,0.0,eV/atom,
Sm(CoSi)$_{2}$,0.0,eV/atom,
Bi$_{2}$Pb$_{2}$Se$_{5}$,0.4275000000000002,eV/atom,
V$_{4}$As$_{3}$,0.0,eV/atom,
Pu(IO$_{3}$)$_{4}$,0.09099999999999975,eV/atom,
InSb,0.0,eV/atom,
Er$_{5}$Bi$_{3}$,0.0,eV/atom,
H$_{6}$CN$_{2}$O$_{3}$,4.4935,eV/atom,O=C(N)N.OO
RbO$_{2}$,0.0,eV/atom,
Hf$_{5}$Te$_{4}$,0.0,eV/atom,
SmBi$_{2}$IO$_{4}$,1.3042000000000002,eV/atom,
Sm$_{2}$TiO$_{5}$,3.3038999999999996,eV/atom,
CsPr(SO$_{4}$)$_{2}$,5.413600000000001,eV/atom,
CaNi$_{5}$H,0.0,eV/atom,
Ba(CuO)$_{2}$,1.3793000000000002,eV/atom,
SmPO$_{4}$,5.3625,eV/atom,
FeBPbO$_{4}$,2.0864000000000003,eV/atom,
Sm$_{4}$Bi$_{2}$O,0.0,eV/atom,
KGaI$_{4}$,2.605,eV/atom,
ZnH$_{14}$C$_{2}$(N$_{2}$Cl)$_{4}$,3.9837000000000002,eV/atom,
KNO$_{2}$,2.4085,eV/atom,
Ca$_{2}$P$_{2}$H$_{4}$O$_{9}$,5.0576,eV/atom,
CsAlBr$_{4}$,4.393,eV/atom,
PbI$_{2}$,2.3538,eV/atom,
CuH$_{36}$C$_{8}$(N$_{5}$O$_{4}$)$_{2}$,0.8099999999999999,eV/atom,
Al$_{13}$Co$_{4}$,0.0,eV/atom,
HN,4.3591999999999995,eV/atom,[N-]=[N+]=[N-].N[NH3+]
Zr$_{5}$ZnSb$_{3}$,0.0,eV/atom,
BaVAsO$_{6}$,2.6697,eV/atom,
Ta$_{2}$CN$_{3}$,0.0,eV/atom,
BaTe$_{2}$,0.34250000000000025,eV/atom,
Na$_{15}$S$_{5}$Cl(O$_{5}$F)$_{4}$,4.9573,eV/atom,
CdBr$_{2}$,2.8796,eV/atom,
In$_{7}$GeIrO$_{8}$,0.4081999999999999,eV/atom,
MnSeO$_{3}$,3.2391000000000005,eV/atom,
Ba(FeAs)$_{2}$,0.0,eV/atom,
Zr$_{3}$Pd$_{4}$,0.0,eV/atom,
TmBRh$_{3}$,0.0,eV/atom,
ReC$_{5}$ClO$_{5}$,2.577,eV/atom,O=C=[Re](Cl)(=C=O)(=C=O)(=C=O)=C=O
SmTl(WO$_{4}$)$_{2}$,2.744,eV/atom,
LiAlSiO$_{4}$,4.8483,eV/atom,
Y$_{3}$Sb$_{4}$Au$_{3}$,0.5757000000000003,eV/atom,
Li(NiGe)$_{6}$,0,eV/atom,
BaZr(PO$_{4}$)$_{2}$,3.8199,eV/atom,
Er$_{2}$Ni$_{12}$P$_{7}$,0.0,eV/atom,
As$_{2}$Pb$_{4}$S$_{6}$ICl,1.8290000000000002,eV/atom,
Cs$_{11}$Rb$_{7}$O$_{3}$,0.0,eV/atom,
CuO$_{2}$,0.0,eV/atom,
YbZn,0.0,eV/atom,
HoInIr,0.0,eV/atom,
K,0.0,eV/atom,
BaSi$_{2}$,0.7812999999999999,eV/atom,
Sn$_{3}$F$_{8}$,3.1589000000000005,eV/atom,
Ti$_{3}$O$_{5}$,0.0,eV/atom,
NiP$_{2}$W,0.0,eV/atom,
K$_{4}$V$_{2}$O$_{7}$,3.4405,eV/atom,
Mg$_{2}$Hg,0.0,eV/atom,
HoFeGe$_{2}$,0.0,eV/atom,
KB$_{6}$(HO)$_{6}$,1.6486,eV/atom,
Yb(Al$_{2}$Cr)$_{4}$,0.0,eV/atom,
YTl(PSe$_{3}$)$_{2}$,1.5277000000000003,eV/atom,
CaB$_{6}$,0.0,eV/atom,
Sc$_{2}$V$_{3}$Si$_{4}$,0.0,eV/atom,
KSrCO$_{3}$F,4.0934,eV/atom,
K$_{3}$PbAu$_{5}$,0.0,eV/atom,
Cs$_{2}$Ce$_{10}$Os$_{2}$I$_{17}$,0.0,eV/atom,
ErGaPt,0.0,eV/atom,
CaSe$_{2}$O$_{5}$,3.4779000000000004,eV/atom,
Cs$_{2}$Si$_{3}$SnO$_{9}$,3.7921,eV/atom,
Sr$_{5}$Sb$_{3}$,0.0,eV/atom,
Sr$_{4}$Al$_{6}$SO$_{16}$,4.3934999999999995,eV/atom,
Hg$_{2}$Mo$_{5}$O$_{16}$,2.3392,eV/atom,
S$_{3}$(NCl)$_{2}$,1.7123000000000002,eV/atom,
Hf$_{2}$CS,0.0,eV/atom,
Er$_{2}$SeO$_{2}$,2.1741000000000006,eV/atom,
AsH$_{2}$C$_{2}$NCl$_{2}$O,0.4762,eV/atom,
CaSnO$_{3}$,1.3904999999999994,eV/atom,
VH$_{10}$SO$_{10}$,3.1014,eV/atom,
Zr$_{2}$Fe$_{12}$P$_{7}$,0.0,eV/atom,
FeAsO$_{4}$,2.083,eV/atom,
CeOs$_{2}$,0.0,eV/atom,
P$_{3}$RuO$_{9}$,0.0,eV/atom,
YbInPt,0.0,eV/atom,
Cu$_{4}$Mo$_{5}$O$_{17}$,0.7570999999999999,eV/atom,
CdH$_{4}$S$_{2}$O$_{5}$,3.117,eV/atom,
Na$_{4}$Zr$_{2}$(SiO$_{4}$)$_{3}$,4.321199999999999,eV/atom,
PrCrGe$_{3}$,0.0,eV/atom,
NaPF$_{6}$,7.008900000000001,eV/atom,
CoAs$_{2}$,0.17389999999999972,eV/atom,
BaGaSiH,0.47920000000000007,eV/atom,
Ba(NiP$_{2}$)$_{2}$,0.0,eV/atom,
BaTaS$_{3}$,0.0,eV/atom,
La$_{11}$V$_{4}$O$_{26}$,1.0184999999999995,eV/atom,
CsTi$_{2}$Cl$_{7}$,0.2471000000000001,eV/atom,
AuS$_{5}$N$_{5}$Cl$_{4}$,1.7333999999999998,eV/atom,
Sm$_{2}$S$_{3}$,0.7441,eV/atom,
Na$_{3}$Li$_{3}$Sc$_{2}$F$_{12}$,6.8685,eV/atom,
ZnH$_{12}$(IN$_{2}$)$_{2}$,0.6053,eV/atom,
La$_{4}$Ti$_{5}$(Si$_{2}$O$_{11}$)$_{2}$,0.0,eV/atom,
TiSi,0.0,eV/atom,
SrHo$_{2}$O$_{4}$,3.7325000000000004,eV/atom,
HfC,0.0,eV/atom,
Rb$_{2}$MgP$_{4}$(HO$_{2}$)$_{8}$,5.3654,eV/atom,
GeSe,0.8988,eV/atom,
Ho$_{3}$CuSiSe$_{7}$,1.5893000000000002,eV/atom,
CuHgSCl,0.5615999999999999,eV/atom,
Rb$_{5}$SiHO$_{5}$,2.6294000000000004,eV/atom,
HfBeSi,0.0,eV/atom,
La(AlGe)$_{2}$,0.0,eV/atom,
K$_{2}$Sn$_{2}$S$_{5}$,1.399,eV/atom,
Th(CrGe)$_{2}$,0.0,eV/atom,
Co$_{5}$Ge$_{7}$,0.0,eV/atom,
TbHg$_{3}$,0.0,eV/atom,
Th$_{2}$Zn,0.0,eV/atom,
Cs$_{3}$TiF$_{7}$,2.9901,eV/atom,
Lu$_{2}$Co$_{3}$Si$_{5}$,0.0,eV/atom,
Tb(CoGe)$_{6}$,0.0,eV/atom,
Li$_{6}$Br$_{3}$N,2.1752000000000002,eV/atom,
La$_{2}$Sn$_{5}$,0.0,eV/atom,
AuN,0.0,eV/atom,
NbGePt,0.0,eV/atom,
CdH$_{20}$C$_{2}$S$_{2}$(NO$_{2}$)$_{6}$,0.2538,eV/atom,
Cu$_{3}$PSe$_{4}$,0.0026000000000001577,eV/atom,
Cs$_{5}$CaNi$_{4}$F$_{15}$,5.4603,eV/atom,
LaMgTl,0.0,eV/atom,
Na$_{2}$WO$_{4}$,4.7520999999999995,eV/atom,
LiCaBO$_{3}$,5.040100000000001,eV/atom,
In$_{5}$Br$_{7}$,2.0674,eV/atom,
Er$_{5}$NiPb$_{3}$,0.0,eV/atom,
CuCl,0.4439000000000002,eV/atom,
Ba$_{4}$Na(BO$_{3}$)$_{3}$,3.9839,eV/atom,
K$_{3}$NpO$_{2}$F$_{5}$,0.12670000000000003,eV/atom,
NaTa$_{3}$O$_{8}$,2.68,eV/atom,
MgP$_{4}$,0.7289000000000003,eV/atom,
TiGeTe$_{6}$,0.41830000000000034,eV/atom,
TiO$_{2}$,1.7809999999999997,eV/atom,
GdB$_{4}$,0.0,eV/atom,
Cu$_{2}$As$_{2}$O$_{7}$,0.0,eV/atom,
Hf$_{9}$CoMo$_{4}$,0.0,eV/atom,
TmZn,0.0,eV/atom,
Zn(HO)$_{2}$,2.9697,eV/atom,
Sb$_{5}$IO$_{7}$,2.5753,eV/atom,
TlNO$_{2}$,1.6205000000000003,eV/atom,
DyB$_{4}$,0.0,eV/atom,
InCu(WO$_{4}$)$_{2}$,0.6250999999999998,eV/atom,
KGeNO,2.6817,eV/atom,
BaSe,1.949,eV/atom,
NaCrSe$_{2}$,0.6664000000000003,eV/atom,
Nd$_{3}$SnN,0.0,eV/atom,
AlN,4.039,eV/atom,
RbLaSiS$_{4}$,2.7894,eV/atom,
Ga$_{2}$Os,0.6661000000000001,eV/atom,
Re$_{2}$Pt(CO)$_{12}$,1.8279,eV/atom,
PuNiC$_{2}$,0.0,eV/atom,
IrCl$_{3}$,1.8275,eV/atom,
LiFe(SiO$_{3}$)$_{2}$,2.7033,eV/atom,
Na$_{2}$GeO$_{3}$,2.9873,eV/atom,
Ca$_{2}$CdH$_{24}$(ClO$_{2}$)$_{6}$,4.241899999999999,eV/atom,
Mg$_{3}$Pt,0.0,eV/atom,
Ba$_{2}$EuSbO$_{6}$,0.0021999999999997577,eV/atom,
Na$_{5}$LiN$_{2}$,0.18620000000000003,eV/atom,
Rb$_{2}$Cd$_{2}$(SO$_{4}$)$_{3}$,2.5197,eV/atom,
P$_{2}$Se$_{5}$,1.3347,eV/atom,[Se]1[Se][Se]PP([Se][Se]1)C2CCCCCC2
Rb$_{5}$Mo$_{27}$Se$_{31}$,0.0,eV/atom,
TlCuPSe$_{3}$,1.4855000000000005,eV/atom,
FeSiO$_{3}$,3.0441,eV/atom,
GdB$_{2}$Rh$_{3}$,0.03330000000000055,eV/atom,
Nd$_{2}$CuO$_{4}$,0.0,eV/atom,
Ta$_{2}$PtSe$_{7}$,0.0,eV/atom,
PrMg$_{3}$,0.0,eV/atom,
Li$_{2}$SiO$_{3}$,5.0766,eV/atom,
Pr(FeP$_{3}$)$_{4}$,0.0,eV/atom,
AsBr$_{3}$,3.1271000000000004,eV/atom,
Ba$_{2}$Tl(HO)$_{7}$,2.4953000000000003,eV/atom,
Tl$_{3}$BS$_{3}$,1.4222000000000001,eV/atom,
ScTl(MoO$_{4}$)$_{2}$,3.6563000000000003,eV/atom,
CoH$_{8}$(IO$_{5}$)$_{2}$,2.9021,eV/atom,
K$_{2}$RuN$_{3}$Cl$_{3}$O$_{5}$,2.0797,eV/atom,
Sm$_{2}$MnNiO$_{6}$,1.7384,eV/atom,
Li$_{2}$MgSi,0.3743999999999996,eV/atom,
Rb$_{3}$Ti$_{3}$(PO$_{4}$)$_{5}$,2.5341,eV/atom,
Dy(SiRh)$_{2}$,0.0,eV/atom,
Li$_{3}$ThF$_{7}$,5.6857999999999995,eV/atom,
Li$_{2}$SnTeO$_{6}$,2.0439000000000003,eV/atom,
Al$_{2}$O,0.0,eV/atom,
La$_{5}$C$_{2}$I$_{9}$,1.4393000000000002,eV/atom,
AlSb$_{2}$(TeCl$_{2}$)$_{2}$,0.7508999999999997,eV/atom,
AuBr,1.9716000000000002,eV/atom,
ZrSiSe,0.0,eV/atom,
Yb$_{3}$Ge$_{8}$,0.0,eV/atom,
TmB$_{2}$Rh$_{3}$,0.0,eV/atom,
SF$_{6}$,5.9124,eV/atom,FS(F)(F)(F)(F)F
ErRu$_{2}$,0.0,eV/atom,
BaBe$_{13}$,0.0,eV/atom,
SnSO$_{4}$,4.068300000000001,eV/atom,
NdNiSnH$_{2}$,0.0,eV/atom,
SnPS$_{3}$,1.1923,eV/atom,
RbVP$_{2}$O$_{7}$,1.9475,eV/atom,
Nd$_{3}$Au$_{4}$,0.0,eV/atom,
SrAl$_{4}$O$_{7}$,3.7468000000000004,eV/atom,
Ba$_{6}$Hf$_{5}$S$_{16}$,0.5949,eV/atom,
Eu$_{2}$GeS$_{4}$,0.2894999999999994,eV/atom,
SiO$_{2}$,3.5957,eV/atom,
TmAgS$_{2}$,0.8198000000000003,eV/atom,
ScSiPt,0.0,eV/atom,
KN$_{3}$O$_{4}$,2.8383000000000003,eV/atom,[K].O=[N+]([O-])N.O=[N+]([O-])N
Te$_{2}$Ir,0.0,eV/atom,
KTlO$_{2}$,0.8835999999999999,eV/atom,
Sn(Mo$_{3}$S$_{4}$)$_{2}$,0.0,eV/atom,
Cs$_{2}$CoH$_{12}$(SO$_{7}$)$_{2}$,3.3016,eV/atom,
BaGa$_{4}$,0.0,eV/atom,
SmInAu$_{2}$,0.0,eV/atom,
CdC,0.0,eV/atom,
ZnCu$_{2}$SiSe$_{4}$,0.39839999999999964,eV/atom,
NpFe$_{2}$,0.0,eV/atom,
KTi$_{3}$Si$_{2}$P$_{6}$O$_{25}$,0.0,eV/atom,
LaPRh,0.0,eV/atom,
ZrMnGe,0.03480000000000061,eV/atom,
Tb$_{4}$Ga$_{6}$FeGe$_{6}$,0.0,eV/atom,
Ce$_{3}$Co$_{29}$(Si$_{2}$B$_{5}$)$_{2}$,0.0026999999999999247,eV/atom,
BaFe(Si$_{2}$O$_{5}$)$_{2}$,3.6492000000000004,eV/atom,
NbN,0.0,eV/atom,
KNaS$_{2}$O$_{7}$,5.218100000000001,eV/atom,
KAl(MoO$_{4}$)$_{2}$,3.8863000000000003,eV/atom,
Ce$_{2}$(Zn$_{2}$Ge)$_{3}$,0.0,eV/atom,
Zn(H$_{2}$N)$_{2}$,2.3711,eV/atom,
MnH$_{8}$(NO$_{5}$)$_{2}$,2.8790999999999998,eV/atom,[Mn+2].O=[N+]([O-])[O-].O=[N+]([O-])[O-].O.O.O.O
SrIn$_{2}$Pt,0.0,eV/atom,
Pa$_{3}$P$_{4}$,0.0,eV/atom,
Rb$_{2}$Ag$_{2}$GeS$_{4}$,1.907,eV/atom,
K$_{2}$TcF$_{6}$,1.7561,eV/atom,
ErSbPd,0.2096,eV/atom,
H$_{4}$NClO$_{4}$,5.2585,eV/atom,
Tb(CrSi)$_{2}$,0.0,eV/atom,
YbIn$_{2}$Ni,0.0,eV/atom,
SmSb$_{2}$,0.0,eV/atom,
TbMgNi,0.0,eV/atom,
La(SiRu)$_{2}$,0.0,eV/atom,
C$_{4}$SO$_{2}$,1.4474,eV/atom,
K$_{4}$SnO$_{4}$,2.3374,eV/atom,
NdGa$_{2}$,0.0,eV/atom,
Na$_{2}$Zn(SiO$_{3}$)$_{2}$,4.0479,eV/atom,
KBi(PO$_{3}$)$_{4}$,4.8932,eV/atom,
CeAsPd,0.0,eV/atom,
Lu$_{2}$InAu$_{2}$,0.0,eV/atom,
Ba$_{6}$Ti$_{17}$O$_{40}$,2.7082999999999995,eV/atom,
KNa$_{3}$H$_{4}$,2.9382,eV/atom,
LiB$_{6}$O$_{9}$F,6.4556,eV/atom,
U(MnSi)$_{2}$,0.0,eV/atom,
YbAsO$_{4}$,0.0,eV/atom,
NdCu$_{9}$Sn$_{4}$,0.0,eV/atom,
SiO$_{2}$,1.7395999999999994,eV/atom,
SbTePd,0.0,eV/atom,
PrGePt,0.0,eV/atom,
Li$_{2}$CeN$_{2}$,1.2157999999999998,eV/atom,
TmBi$_{2}$BrO$_{4}$,1.3546,eV/atom,
GdTlZn,0.0,eV/atom,
HoZn,0.0,eV/atom,
NaNp$_{2}$F$_{9}$,0.0,eV/atom,
UPt$_{5}$,0.0,eV/atom,
Ba$_{2}$SrIrO$_{6}$,0.10089999999999977,eV/atom,
Ba$_{2}$ScIrO$_{6}$,0.0,eV/atom,
Gd$_{3}$(AlNi$_{3}$)$_{2}$,0.0,eV/atom,
Bi$_{2}$(Br$_{3}$N)$_{3}$,0.0,eV/atom,
BiAuCl$_{6}$,1.6272,eV/atom,
Er$_{5}$(MoO$_{6}$)$_{2}$,0.0,eV/atom,
NaTl,0.0,eV/atom,
K$_{2}$RbPt,0.0,eV/atom,
CuPtF$_{6}$,0.0724,eV/atom,
Be$_{4}$Si$_{2}$H$_{2}$O$_{9}$,5.739199999999999,eV/atom,
SbPC$_{3}$S$_{3}$N$_{3}$Cl$_{3}$O,3.3261,eV/atom,N#CSP(=O)(SC#N)SC#N.N#CSP(=O)(SC#N)SC#N.N#CSP(=O)(SC#N)SC#N.N#CSP(=O)(SC#N)SC#N.Cl[Sb](Cl)Cl.Cl[Sb](Cl)Cl.Cl[Sb](Cl)Cl.Cl[Sb](Cl)Cl
AuF$_{5}$,0.7890000000000001,eV/atom,
Sr$_{2}$HfFeO$_{6}$,0.0,eV/atom,
CeGeAu,0.0,eV/atom,
ZrSbRu,0.0,eV/atom,
KSmP$_{3}$HO$_{10}$,5.4434,eV/atom,
KMgBi,0.38549999999999995,eV/atom,
LaFe$_{12}$O$_{19}$,0.015499999999999403,eV/atom,
UReB$_{4}$,0.0,eV/atom,
La$_{2}$Sb,0.0,eV/atom,
P$_{2}$H$_{12}$N$_{7}$Cl,4.9510000000000005,eV/atom,[Cl-].N[N+](P(N)N)=P(N)(N)N
Ga$_{3}$BN$_{4}$,2.3927999999999994,eV/atom,
ReCl$_{4}$O,0.647,eV/atom,
La$_{3}$Sn$_{7}$,0.0,eV/atom,
S,0.8323,eV/atom,
CrPdO$_{2}$,0.0,eV/atom,
BaH$_{4}$(IO)$_{2}$,3.6575000000000006,eV/atom,
H$_{8}$Pd(NCl$_{3}$)$_{2}$,1.1436,eV/atom,
Pu,0.0,eV/atom,
K$_{3}$Zr$_{4}$Ag$_{2}$F$_{23}$,0.7016999999999999,eV/atom,
CeCu$_{5}$Au,8.999999999996788E-4,eV/atom,
Sm$_{3}$Rh$_{2}$,0.0019999999999997797,eV/atom,
TaSe$_{3}$,0.0,eV/atom,
Ca(YS$_{2}$)$_{2}$,1.5336999999999996,eV/atom,
Na$_{5}$Ca$_{2}$Al(PO$_{4}$)$_{4}$,4.6495999999999995,eV/atom,
KCrS$_{2}$,1.1611999999999996,eV/atom,
As(BrF$_{2}$)$_{3}$,1.5927,eV/atom,
Dy$_{3}$(CuSi)$_{4}$,0.0,eV/atom,
CoBr$_{2}$,0.06319999999999992,eV/atom,
CePS,0.0,eV/atom,
DyMnO$_{3}$,0.0,eV/atom,
Li$_{8}$PO$_{3}$,0.0,eV/atom,
DyB$_{6}$,0.0,eV/atom,
Co$_{2}$P,0.0,eV/atom,
ErTiGe,0.0,eV/atom,
In$_{3}$Ru,0.20789999999999953,eV/atom,
NbFeO$_{4}$,1.956,eV/atom,
CsI,3.6776000000000004,eV/atom,
Zr(SiNi)$_{2}$,0.0,eV/atom,
Li$_{3}$AlGeO$_{5}$,3.9691999999999994,eV/atom,
SmInPt,0.0,eV/atom,
TiGeS$_{3}$,0.42989999999999995,eV/atom,
VH$_{2}$,0.0,eV/atom,
ScSnPd$_{2}$,0.0,eV/atom,
CaGa$_{2}$,0.0,eV/atom,
Sr$_{9}$Mg$_{38}$,0.0,eV/atom,
EuInAu,0.020800000000000374,eV/atom,
K$_{3}$AuO,0.5646,eV/atom,
Ti$_{3}$(BiO$_{3}$)$_{4}$,2.3715,eV/atom,
Dy(AlCl$_{4}$)$_{3}$,4.2606,eV/atom,
LaInAg$_{2}$,0.0,eV/atom,
KH$_{3}$(CO$_{2}$)$_{2}$,4.8037,eV/atom,
MnSbRh$_{2}$,0.0,eV/atom,
V$_{2}$PH$_{10}$C$_{2}$N$_{2}$O$_{8}$F,2.7561,eV/atom,
TlPd$_{3}$,0.0,eV/atom,
Er$_{2}$Ge$_{2}$O$_{7}$,3.7278999999999995,eV/atom,
K$_{2}$BeF$_{4}$,6.8711,eV/atom,
ThB$_{4}$Mo,0.0,eV/atom,