formula,Property band_gap,Property band_gap units,Property SMILES
KEuPSe$_{4}$,0.0,eV/atom,
BaVOF$_{4}$,2.7566,eV/atom,
NaNb$_{2}$PO$_{8}$,1.9724,eV/atom,
In$_{4}$Ag$_{9}$,0.0,eV/atom,
LaAl,0.0,eV/atom,
Zr$_{2}$TeBr$_{12}$,2.4198,eV/atom,
Sr$_{5}$As$_{3}$O$_{12}$F,3.9026000000000005,eV/atom,
YNiGe$_{3}$,0.0,eV/atom,
TbGa$_{2}$Pd,0.0,eV/atom,
PrNiSn,0.0,eV/atom,
TeAs(IF$_{2}$)$_{3}$,1.8895,eV/atom,
Sm$_{3}$Bi$_{4}$Au$_{3}$,0.37600000000000033,eV/atom,
CrGeTe$_{3}$,0.0,eV/atom,
NaAl(H$_{2}$N)$_{4}$,0.7307999999999999,eV/atom,
CsTa$_{6}$PbCl$_{18}$,0.0,eV/atom,
Lu$_{2}$SiO$_{5}$,4.6922,eV/atom,
La$_{4}$S$_{3}$N$_{2}$,1.1936999999999998,eV/atom,
Ce$_{2}$Si$_{7}$,0.0,eV/atom,
K$_{2}$H$_{2}$C$_{2}$S$_{2}$N$_{2}$O,2.3712000000000004,eV/atom,
SrCrF$_{4}$,2.4214,eV/atom,
LaIn,0.0,eV/atom,
Ga$_{8}$Cu$_{3}$Mo$_{2}$,0.0,eV/atom,
La(NO$_{2}$)$_{3}$,2.2049000000000003,eV/atom,
CdH$_{4}$CN$_{2}$Cl$_{2}$O,3.5746,eV/atom,
Mg$_{3}$(Ni$_{10}$B$_{3}$)$_{2}$,0.0,eV/atom,
BaP$_{3}$,0.5735000000000001,eV/atom,
K$_{5}$Na(Ti$_{2}$Se$_{9}$)$_{3}$,0.8225000000000002,eV/atom,
TiF$_{3}$,0.0,eV/atom,
UV$_{2}$O$_{8}$,1.6451,eV/atom,
Ba$_{3}$(BN$_{2}$)$_{2}$,2.5171,eV/atom,
Er$_{2}$Al$_{3}$Si$_{2}$,0.0,eV/atom,
BaNaFe$_{2}$F$_{9}$,3.7199,eV/atom,
Li$_{2}$PtF$_{6}$,2.4927,eV/atom,
Ce$_{2}$H$_{16}$S$_{3}$O$_{20}$,1.2367,eV/atom,
Sr$_{3}$U$_{11}$O$_{36}$,1.7103000000000002,eV/atom,
AgHg$_{2}$NO$_{5}$,0.5517,eV/atom,
Cr$_{23}$C$_{6}$,0.0,eV/atom,
AsH$_{3}$C(SF$_{2}$)$_{3}$,2.7919,eV/atom,
ZrNiH$_{3}$,0.0,eV/atom,
ThGaNi,0.0,eV/atom,
Ce$_{2}$In$_{3}$Ru$_{2}$,0.0,eV/atom,
CeAl$_{5}$Pt$_{3}$,0.0,eV/atom,
LiBi,0.0,eV/atom,
K$_{3}$Re,0.0,eV/atom,
LaAu,0.0,eV/atom,
Si$_{6}$Cl$_{10}$O$_{7}$,5.46,eV/atom,
TlHPd$_{3}$,0.0,eV/atom,
PbI$_{2}$,2.4455,eV/atom,
Na$_{4}$U(MoO$_{4}$)$_{4}$,0.006299999999999972,eV/atom,
CdHClO,2.4635000000000002,eV/atom,
Nb$_{3}$Rh,0.0,eV/atom,
Mg$_{44}$Rh$_{7}$,0.0,eV/atom,
FeCo$_{2}$(CN)$_{6}$,0.0,eV/atom,
CuBi(PSe$_{3}$)$_{2}$,0.6481000000000003,eV/atom,
Sr$_{2}$BN$_{2}$F,2.5726,eV/atom,
PrCuO$_{2}$,2.3548,eV/atom,
Ba(PO$_{3}$)$_{2}$,5.4349,eV/atom,
ZnCuAsHO$_{5}$,0.3267,eV/atom,
Li$_{3}$Fe$_{2}$(PO$_{4}$)$_{3}$,2.6074,eV/atom,
Sr$_{2}$PrGaCu$_{2}$O$_{7}$,0.0,eV/atom,
Tb$_{3}$CuSnSe$_{7}$,1.0152999999999999,eV/atom,
VAg$_{3}$O$_{4}$,0.9581,eV/atom,
EuBN$_{2}$,0.0,eV/atom,
RbIn$_{3}$F$_{10}$,3.4383,eV/atom,
BaB$_{2}$H$_{2}$O$_{5}$,4.7844,eV/atom,
PrInCu,0.0,eV/atom,
BeB$_{2}$,0.0,eV/atom,
K$_{3}$Cr$_{4}$PO$_{16}$,2.7012,eV/atom,
Ba$_{17}$Y$_{16}$Zn$_{8}$Pt$_{4}$O$_{57}$,2.2817,eV/atom,
Nd$_{4}$(FeB$_{2}$)$_{3}$,0.0,eV/atom,
LaS,0.0,eV/atom,
Dy(CuO$_{2}$)$_{2}$,0.0,eV/atom,
CsAgO,1.4479000000000002,eV/atom,
HfO$_{2}$,4.668200000000001,eV/atom,
BaPIr,0.0,eV/atom,
CdH$_{4}$Br$_{3}$N,2.5461,eV/atom,
SnC$_{2}$(SN)$_{2}$,2.4287,eV/atom,
Rb$_{4}$CO$_{4}$,1.1243999999999998,eV/atom,
I,1.0140999999999998,eV/atom,[I]
NdPt$_{2}$,0.0,eV/atom,
NiSO$_{4}$,3.2555000000000005,eV/atom,
Ag$_{4}$TeO$_{5}$,0.0041999999999999815,eV/atom,
ZrSiNi,0.0,eV/atom,
Sc$_{3}$Co$_{2}$Ge$_{3}$,0.0,eV/atom,
HoMn$_{4}$(CuO$_{4}$)$_{3}$,0.0,eV/atom,
NbF$_{4}$,0.0,eV/atom,
PrAl$_{3}$Cu,0.0,eV/atom,
SbSeCl$_{7}$O,1.9449999999999998,eV/atom,
AlP,1.9532999999999996,eV/atom,
Sr$_{5}$P$_{3}$O$_{12}$F,5.2118,eV/atom,
LiMgVO$_{4}$,3.4825999999999997,eV/atom,
CuSeO$_{3}$,0.2102000000000004,eV/atom,
FeGe,0.0,eV/atom,
Sr(Ni$_{5}$P$_{3}$)$_{2}$,0.03539999999999921,eV/atom,
Tl$_{2}$ZnN$_{12}$,3.0564,eV/atom,
Pr$_{10}$(B$_{3}$C$_{4}$)$_{3}$,0.0,eV/atom,
K$_{3}$DySi$_{2}$O$_{7}$,3.7064,eV/atom,
CdCu$_{2}$SnSe$_{4}$,0.0,eV/atom,
Pr(Ni$_{2}$Sn)$_{2}$,0.0,eV/atom,
BiTeCl,1.5135,eV/atom,
DyCoSi,0.0,eV/atom,
HoCuSn,0.0,eV/atom,
Ni(N$_{3}$Cl)$_{2}$,0.0,eV/atom,
Cr(PO$_{3}$)$_{3}$,3.2554000000000003,eV/atom,
SrSiO$_{3}$,4.6026,eV/atom,
La$_{2}$RuO$_{5}$,0.0,eV/atom,
CdAs,0.0928,eV/atom,
CdI$_{2}$,2.3543000000000003,eV/atom,
TeAs(SeF$_{3}$)$_{2}$,1.6914,eV/atom,
LiTa$_{3}$O$_{8}$,3.4495,eV/atom,
SnSe$_{2}$,0.7018,eV/atom,
Ce$_{7}$Rh$_{3}$,0.0,eV/atom,
PuSb,0.0,eV/atom,
CsMoPO$_{6}$,2.8607,eV/atom,
YbI$_{2}$,4.007,eV/atom,
KTi$_{2}$(PO$_{4}$)$_{3}$,2.5455,eV/atom,
Nb$_{2}$Cu$_{3}$O$_{8}$,0.0,eV/atom,
ThSi$_{3}$Ir,0.0,eV/atom,
LaSi$_{2}$Ru,0.0,eV/atom,
BaLi$_{2}$Ti$_{6}$O$_{14}$,2.8907999999999996,eV/atom,
SeS$_{2}$(NCl)$_{2}$,1.7656999999999998,eV/atom,[Cl-].Cl[N+]1=NSS[Se]1
Ba$_{2}$YFe$_{3}$O$_{8}$,0.0,eV/atom,
Dy$_{3}$InN,0.0,eV/atom,
NaFeSO$_{4}$F,3.8804,eV/atom,
SmGe$_{5}$,0.0,eV/atom,
GeF$_{2}$,4.0597,eV/atom,
Na$_{2}$Ti$_{9}$O$_{19}$,2.1886,eV/atom,
La(SiPt)$_{2}$,0.0,eV/atom,
ErBO$_{3}$,5.131399999999999,eV/atom,
NaPPdS$_{4}$,1.1721999999999997,eV/atom,
Sb$_{3}$O$_{2}$F$_{5}$,3.7776999999999994,eV/atom,
Ce$_{3}$(SiRh)$_{2}$,0.0,eV/atom,
PrVO$_{4}$,3.0298999999999996,eV/atom,
BaSi$_{2}$O$_{5}$,4.8574,eV/atom,
SiO$_{2}$,5.703399999999999,eV/atom,
Li$_{2}$U(MoO$_{5}$)$_{2}$,2.4047,eV/atom,
MnH$_{8}$C$_{2}$NCl$_{3}$,1.6327000000000003,eV/atom,
NdTaO$_{4}$,3.9417999999999997,eV/atom,
TbInCo$_{2}$,0.0,eV/atom,
Zn$_{2}$CuAu,0.0,eV/atom,
P$_{2}$H$_{4}$PbO$_{8}$,4.4499,eV/atom,
Dy$_{3}$Ga$_{8}$Ir$_{3}$,0.0,eV/atom,
CuH$_{4}$(ClO)$_{2}$,0.4636,eV/atom,
SrSnO$_{3}$,1.7365,eV/atom,
CaC$_{2}$(SN)$_{2}$,3.3977,eV/atom,
Zr$_{2}$Ni$_{12}$P$_{7}$,0.0,eV/atom,
W$_{8}$O$_{21}$,0.0,eV/atom,
Lu$_{2}$InNi$_{2}$,0.0,eV/atom,
CaMgSiO$_{4}$,4.6294,eV/atom,
Li(Mo$_{3}$S$_{4}$)$_{2}$,0.0,eV/atom,
K$_{3}$SO$_{4}$F,5.2345,eV/atom,
EuHSO$_{5}$,0.0,eV/atom,
NbAlO$_{4}$,3.3831999999999995,eV/atom,
KNiAs$_{3}$F$_{18}$,4.5184,eV/atom,
SbS(BrF$_{2}$)$_{3}$,2.532,eV/atom,F[Sb-](F)(F)(F)(F)F.Br[S+](Br)Br
K$_{4}$MnCl$_{6}$,2.4284,eV/atom,
CoAs$_{4}$F$_{18}$,3.4337999999999997,eV/atom,
Na(GeAs)$_{6}$,0.0,eV/atom,
LiCeGe$_{2}$,5.999999999994898E-4,eV/atom,
K$_{3}$H$_{3}$Pd,1.7674,eV/atom,
Ce$_{2}$Cd(SeO)$_{2}$,0.0,eV/atom,
BS$_{4}$N$_{4}$F$_{3}$,1.9522,eV/atom,
TbSn$_{3}$,0.0,eV/atom,
Ba$_{4}$Nd$_{2}$Cd$_{3}$Se$_{10}$,1.5191,eV/atom,[Cd+2].[Cd+2].[Cd+2].[Ba+2].[Ba+2].[Ba+2].[Ba+2].[Nd+3].[Nd+3].[Se-][Se][Se][Se][Se][Se][Se][Se][Se][Se-].[Se-][Se][Se][Se][Se][Se][Se][Se][Se][Se-].[Se-][Se][Se][Se][Se][Se][Se][Se][Se][Se-].[Se-][Se][Se][Se][Se][Se][Se][Se][Se][Se-].[Se-][Se][Se][Se][Se][Se][Se][Se][Se][Se-].[Se-][Se][Se][Se][Se][Se][Se][Se][Se][Se-].[Se-][Se][Se][Se][Se][Se][Se][Se][Se][Se-].[Se-][Se][Se][Se][Se][Se][Se][Se][Se][Se-].[Se-][Se][Se][Se][Se][Se][Se][Se][Se][Se-].[Se-][Se][Se][Se][Se][Se][Se][Se][Se][Se-]
HoCo$_{3}$,0.0,eV/atom,
CsGd(CO$_{3}$)$_{2}$,2.7428999999999997,eV/atom,
Nd(BO$_{2}$)$_{3}$,5.254899999999999,eV/atom,
B,0.0,eV/atom,
ZnS,0.0010999999999998789,eV/atom,
HfB$_{12}$,0.0,eV/atom,
KCa$_{2}$P$_{4}$H$_{11}$O$_{18}$,5.279100000000001,eV/atom,
K$_{4}$CO$_{4}$,1.4359,eV/atom,
Gd$_{2}$Au$_{5}$F$_{21}$,1.6190000000000002,eV/atom,
CdI$_{2}$,2.3623000000000003,eV/atom,
HfSnRh,0.0,eV/atom,
Na$_{3}$SiH$_{3}$O$_{5}$,3.8945,eV/atom,
TiGa$_{3}$,0.0,eV/atom,
Ba(ZnAs)$_{2}$,0.0,eV/atom,
Eu$_{3}$InO,0.0,eV/atom,
Ho(NiB)$_{2}$,0,eV/atom,
LiGa$_{2}$Ru,0.0,eV/atom,
CdI$_{2}$,2.3526,eV/atom,
KYbS$_{2}$,0.0,eV/atom,
Zr(CoGe)$_{6}$,0.0,eV/atom,
ReNClF$_{5}$,1.7905000000000002,eV/atom,
Cr(Mo$_{3}$Se$_{4}$)$_{2}$,0.0,eV/atom,
La$_{2}$NiO$_{4}$,1.5482000000000014,eV/atom,
NdRh,0.2267999999999999,eV/atom,
CsB$_{2}$H$_{5}$O$_{6}$,5.0467,eV/atom,
Li$_{6}$Tb$_{2}$O$_{7}$,0.0,eV/atom,
KTiPSe$_{5}$,0.8898999999999997,eV/atom,
CsH$_{7}$O$_{4}$,4.5889999999999995,eV/atom,[Cs+].[OH-].O.O.O
LiPr$_{2}$OsO$_{6}$,0.4064999999999994,eV/atom,
Lu$_{2}$Al$_{3}$Co,0.0,eV/atom,
Sc$_{7}$CoI$_{12}$,0.24110000000000031,eV/atom,
YbCuS$_{2}$,0.0,eV/atom,
Na$_{3}$GeH$_{11}$O$_{9}$,3.8724000000000003,eV/atom,
KLiH$_{2}$WO$_{5}$,4.9734,eV/atom,
Er(Ni$_{2}$P)$_{2}$,0.0,eV/atom,
U(Mo$_{3}$S$_{4}$)$_{2}$,0.0,eV/atom,
ScGe,0.0,eV/atom,
ZrAsPd,0.0,eV/atom,
Li$_{2}$FeSiO$_{4}$,3.0269000000000004,eV/atom,
K$_{2}$CuBr$_{3}$,1.901,eV/atom,
MgCuSn,0.0,eV/atom,
NaMo$_{2}$(PO$_{4}$)$_{3}$,0.0,eV/atom,
Rb$_{2}$Cu$_{2}$Si$_{8}$O$_{19}$,0.5316000000000003,eV/atom,
KBi$_{6}$ClO$_{9}$,2.3531000000000004,eV/atom,
La$_{16}$Al$_{13}$,0.0,eV/atom,
K$_{2}$U(PSe$_{3}$)$_{3}$,0.11139999999999972,eV/atom,
Ba$_{4}$Ga$_{2}$O$_{7}$,3.2427,eV/atom,
K$_{17}$Fe$_{5}$O$_{16}$,2.0912,eV/atom,
NaCd(PO$_{3}$)$_{3}$,4.7063999999999995,eV/atom,
TlB$_{3}$O$_{5}$,4.2226,eV/atom,
K$_{10}$MnMo$_{7}$O$_{27}$,2.9633999999999996,eV/atom,
Dy$_{2}$Ni$_{12}$P$_{7}$,0.0,eV/atom,
BaBOF$_{3}$,5.8868,eV/atom,
ThSiS,0.0,eV/atom,
KI,3.24,eV/atom,
Dy$_{5}$C$_{2}$I$_{9}$,0.6639999999999997,eV/atom,
InH$_{10}$C$_{3}$O$_{11}$,3.4852,eV/atom,
PrSnPd,0.0,eV/atom,
BaZnCl$_{4}$,4.6276,eV/atom,
TcCl$_{4}$,0.7828999999999999,eV/atom,
Pr$_{2}$Fe$_{2}$Se$_{2}$O$_{3}$,1.6839999999999997,eV/atom,
XeF$_{2}$,2.6861999999999995,eV/atom,F[Xe]F
BePbF$_{4}$,5.2044,eV/atom,
Ce$_{2}$MgNi$_{2}$,0.0,eV/atom,
RbAg$_{7}$S$_{4}$,0.4418000000000002,eV/atom,
Ti$_{2}$HPd,0.0,eV/atom,
AsCS$_{3}$N$_{2}$F$_{11}$,3.2632000000000003,eV/atom,
Cs$_{5}$In$_{3}$As$_{4}$,0.9739000000000004,eV/atom,
Ca$_{2}$TaMnO$_{6}$,0.45520000000000005,eV/atom,
UB$_{4}$,0.0,eV/atom,
Eu$_{6}$Mg$_{7}$H$_{26}$,0.6589,eV/atom,
Na$_{3}$In$_{2}$(AsO$_{4}$)$_{3}$,2.2536,eV/atom,
BaAu$_{2}$,0.0,eV/atom,
SnMo$_{5}$O$_{8}$,0.9695,eV/atom,
Na$_{2}$CN$_{2}$,3.0386999999999995,eV/atom,
NaGe,0.6651999999999998,eV/atom,
H$_{6}$CSBrN$_{3}$,3.4555,eV/atom,Br.S=C(N)NN
LiInAg$_{2}$,0.0,eV/atom,
ErSCl,2.9329,eV/atom,
HfH$_{2}$,0.0,eV/atom,
SmCoC$_{2}$,0.0,eV/atom,
KV$_{3}$(SeO$_{6}$)$_{2}$,2.3366000000000002,eV/atom,
EuIBr,0.9729999999999999,eV/atom,
LaAg,0.0,eV/atom,
Pr$_{2}$Co$_{17}$,0.0,eV/atom,
P$_{2}$H$_{6}$N$_{2}$O$_{5}$,0.5178,eV/atom,
Sr$_{4}$GaN$_{3}$O,1.1305,eV/atom,
Ce$_{5}$Pb$_{3}$O,0.0,eV/atom,
TcBi$_{3}$O$_{8}$,2.0021,eV/atom,
Rb$_{2}$Au$_{3}$,0.0,eV/atom,
MgSc,0.0,eV/atom,
CaSi$_{2}$NiO$_{6}$,4.4392,eV/atom,
Y$_{2}$Te$_{5}$O$_{13}$,2.9944999999999995,eV/atom,
VTe$_{2}$,0.0,eV/atom,
CSNF$_{5}$,5.4307,eV/atom,N#CS(F)(F)(F)(F)F
LiH$_{2}$CO$_{3}$,0.12650000000000006,eV/atom,
HoInPt,0.0,eV/atom,
Rb(SbSe$_{2}$)$_{2}$,1.1135000000000002,eV/atom,
Ca(HO)$_{2}$,4.284999999999999,eV/atom,
CeVO$_{3}$,0.017800000000001148,eV/atom,
BeF$_{2}$,8.0867,eV/atom,
SbS$_{4}$N$_{3}$,0.0,eV/atom,S=[Sb]([S-])([S-])[S-].[NH4+].[NH4+].[NH4+]
Mn$_{3}$(BO$_{3}$)$_{2}$,2.0333,eV/atom,
Rb$_{2}$RhF$_{6}$,0.0,eV/atom,
Tb$_{5}$Ru$_{2}$,0.0,eV/atom,
LuCd$_{2}$,0.0,eV/atom,
Tm(GeRu)$_{2}$,0.0,eV/atom,
CdH$_{16}$C$_{4}$(Br$_{2}$N)$_{2}$,3.713,eV/atom,
KS,1.469,eV/atom,
AgTeO$_{3}$,1.1591,eV/atom,
SrCaSi,0.4237000000000002,eV/atom,
Nd$_{3}$(AgSn)$_{4}$,0.0,eV/atom,
Mn$_{3}$BO$_{5}$,0.05699999999999994,eV/atom,
Ca$_{3}$Si$_{2}$Ni$_{3}$,0.0,eV/atom,
GdP$_{4}$H$_{4}$NO$_{12}$,3.4734,eV/atom,[Gd+3].O=P([O-])([O-])[O-].O=P([O-])(O)O.O=P(O)(O)O.O=P(O)(O)O.[NH4+]
SnBr$_{4}$,2.7003,eV/atom,
Eu(GaTe$_{2}$)$_{2}$,0.0,eV/atom,
K$_{4}$Ta$_{2}$S$_{11}$,1.6604999999999999,eV/atom,
SrNb$_{4}$O$_{6}$,0.0,eV/atom,
U$_{2}$Si$_{5}$Tc$_{3}$,0.0,eV/atom,
La$_{2}$Mg(NiH$_{4}$)$_{2}$,0.8984000000000005,eV/atom,
Na$_{2}$PSe$_{3}$,1.9240000000000002,eV/atom,
Dy$_{9}$(SbO)$_{5}$,0.0,eV/atom,
TaPO$_{5}$,2.9698,eV/atom,
OsSe$_{2}$,0.0,eV/atom,
YC$_{2}$,0.0,eV/atom,
KPO$_{4}$,0.0,eV/atom,
Cr$_{2}$GaN,0.0,eV/atom,
BaSiN$_{2}$,2.9202000000000004,eV/atom,
KNaLaNbO$_{5}$,3.6387000000000005,eV/atom,
Ge$_{4}$Te$_{7}$As$_{2}$,0.2182000000000004,eV/atom,
TiH$_{12}$N$_{2}$(O$_{2}$F$_{3}$)$_{2}$,3.8263,eV/atom,
Si$_{3}$N$_{4}$,4.245100000000001,eV/atom,
TiNiO$_{3}$,2.8864999999999994,eV/atom,
Lu,0.0,eV/atom,
TiSn$_{6}$F$_{16}$,2.7043,eV/atom,
Ho$_{6}$CoBi$_{2}$,0.0,eV/atom,
VCo,0.0,eV/atom,
CeCrSe$_{3}$,0.0,eV/atom,
Ba$_{2}$PdO$_{3}$,0.01750000000000007,eV/atom,
KAlF$_{4}$,6.786300000000001,eV/atom,
MnFeAs,0.0,eV/atom,
Cd$_{2}$Hg,0.0,eV/atom,
Nd(CoB)$_{2}$,0.0,eV/atom,
SrPrCuSe$_{3}$,1.0198999999999998,eV/atom,
CaPtO$_{3}$,1.2795999999999994,eV/atom,
Na$_{2}$Cr$_{2}$O$_{7}$,2.5252999999999997,eV/atom,
Zr$_{2}$InPd$_{2}$,0.0,eV/atom,
KTiPO$_{5}$,3.0442,eV/atom,
Ba$_{2}$ClF$_{3}$,5.7401,eV/atom,
IN,0.0,eV/atom,
CaH$_{2}$F$_{4}$,7.6406,eV/atom,
MgTe,2.3186,eV/atom,
Ga$_{5}$Pd,0.0,eV/atom,
Ba$_{2}$YbTaO$_{6}$,0.0,eV/atom,
HfCuGeAs,0.0,eV/atom,
YbB$_{12}$,0.12899999999999956,eV/atom,
CuHgSI,0.4445999999999999,eV/atom,
NiH$_{12}$(BrO$_{7}$)$_{2}$,3.038,eV/atom,
KLiB$_{4}$O$_{7}$,5.0827,eV/atom,
BH$_{6}$CN$_{3}$F$_{4}$,5.6634,eV/atom,F[B-](F)(F)F.NC(N)=[NH2+]
Sc$_{2}$InCu$_{2}$,0.0,eV/atom,
YInCu$_{2}$,0.0,eV/atom,
DySb$_{2}$,0.0,eV/atom,
InP(H$_{2}$O$_{3}$)$_{2}$,3.8611000000000004,eV/atom,
Cu$_{4}$(BiS$_{2}$)$_{5}$,0.0,eV/atom,
Sr$_{3}$Sn$_{5}$,0.0,eV/atom,
La$_{4}$(CoB$_{2}$)$_{3}$,0.0,eV/atom,
AgN$_{3}$O$_{4}$,1.9626,eV/atom,[Ag].O=[N+]([O-])N.O=[N+]([O-])N
LuZnSn$_{2}$,0.0,eV/atom,
ZrSe$_{2}$,0.33099999999999996,eV/atom,
Tb(GePd)$_{2}$,0,eV/atom,
Na$_{4}$VS$_{3}$O$_{13}$,2.6285,eV/atom,
CeH$_{2}$,0.0,eV/atom,
Tm$_{3}$ReB$_{7}$,0.0,eV/atom,
Cs$_{2}$NbCuSe$_{4}$,1.659,eV/atom,
ThGaRh,0.0,eV/atom,
ErB$_{4}$,0.0,eV/atom,
In$_{3}$Au$_{7}$,0.0,eV/atom,
Lu$_{8}$Te,0.0,eV/atom,
Pr(MnSi)$_{2}$,0.0,eV/atom,
PbC$_{2}$(SN)$_{2}$,2.6512000000000002,eV/atom,
Yb$_{3}$S$_{4}$,0.6597999999999997,eV/atom,
PC$_{2}$S$_{2}$N$_{3}$,3.2539000000000002,eV/atom,S=C=NN1P(N=C=S)NPN=P(N=C=S)(N=C=S)N(N=C=S)P1(N=C=S)(N=C=S)N=C=S
NaCaSiHO$_{4}$,4.4923,eV/atom,
La$_{3}$Ir$_{3}$O$_{11}$,0.0,eV/atom,
Ni$_{3}$B$_{7}$BrO$_{13}$,2.952,eV/atom,
RbBaMnO$_{4}$,1.7602999999999998,eV/atom,
AlAu$_{2}$,0.0,eV/atom,
K$_{3}$FeO$_{2}$,1.1592,eV/atom,
SiIr$_{2}$,0.0,eV/atom,
Mg$_{2}$Ru,0.0,eV/atom,
CaGaBO$_{4}$,3.9612,eV/atom,
In$_{2}$HgSe$_{4}$,0.6337000000000002,eV/atom,
USe$_{2}$O$_{7}$,2.1387,eV/atom,O=[U+2]=O.O=[Se]([O-])O[Se](=O)[O-]
LaAsS,0.36439999999999984,eV/atom,
NpCuSe$_{2}$,0.022800000000000153,eV/atom,
Lu$_{3}$Ni$_{2}$Ge$_{3}$,0.0,eV/atom,
Mg$_{4}$P$_{6}$SN$_{12}$,4.830500000000001,eV/atom,
SrAlGe,0.0,eV/atom,
CsTmCdTe$_{3}$,1.5519999999999996,eV/atom,
K$_{2}$UCl$_{5}$,0.1198999999999999,eV/atom,
NbTeBr$_{3}$,0.5913000000000002,eV/atom,
AlBiBr$_{6}$,2.5681,eV/atom,
CsIn$_{3}$O$_{5}$,1.4700000000000002,eV/atom,
EuCuO$_{2}$,0.0,eV/atom,
UGeIr,0.0,eV/atom,
BaZnSiO$_{4}$,3.5871000000000004,eV/atom,
Li$_{3}$BN$_{2}$,3.4547999999999996,eV/atom,
LaAsO$_{4}$,3.7796999999999996,eV/atom,
CuBi,0.0,eV/atom,
Sr$_{3}$U(Te$_{2}$O$_{7}$)$_{2}$,1.9828000000000006,eV/atom,
CeGaNi,0.0,eV/atom,
SiP$_{2}$,1.4173999999999998,eV/atom,
LiH$_{4}$SeNO$_{4}$,3.8634,eV/atom,
Ce$_{3}$(SiNi$_{3}$)$_{2}$,0.0,eV/atom,
DyInIr,0.0,eV/atom,
TbAl$_{7}$Au$_{3}$,0.0,eV/atom,
Cs$_{2}$Na$_{3}$TlO$_{4}$,1.4570000000000003,eV/atom,
CaTe,1.5535,eV/atom,
AsXeF$_{11}$,2.0241000000000002,eV/atom,F[Xe+](F)(F)(F)F.F[As-](F)(F)(F)(F)F
CsSi,1.2115,eV/atom,
LaAgSO,1.3631000000000002,eV/atom,
Dy$_{2}$Te$_{4}$O$_{11}$,3.2494,eV/atom,
ScSnPd,0.0,eV/atom,
V$_{2}$Ni(PO$_{5}$)$_{2}$,1.7194000000000003,eV/atom,
Na$_{3}$VP$_{8}$O$_{23}$,2.4174000000000007,eV/atom,
KNO$_{3}$,3.1966,eV/atom,
K$_{3}$NbP$_{2}$O$_{9}$,2.8040000000000003,eV/atom,
SrIrO$_{3}$,0.0,eV/atom,
Cs$_{7}$U$_{8}$V$_{2}$ClO$_{32}$,1.5212999999999999,eV/atom,
KSe,0.0,eV/atom,
YB$_{2}$Os,0.0,eV/atom,
Si$_{3}$N$_{4}$,4.654700000000001,eV/atom,
Be$_{3}$N$_{2}$,3.3129,eV/atom,
K$_{3}$Sb,0.39360000000000006,eV/atom,
RbSb$_{2}$F$_{7}$,4.2682,eV/atom,
NiPH$_{4}$ClO$_{3}$,3.9714,eV/atom,
Sr$_{3}$(AlSi)$_{2}$,0.0,eV/atom,
Cs$_{2}$LiAl$_{3}$F$_{12}$,7.0872,eV/atom,
LiEu$_{2}$IrO$_{6}$,0.0,eV/atom,
Li$_{2}$NiO$_{2}$,2.9545000000000003,eV/atom,
Y(SiNi)$_{2}$,0.0,eV/atom,
CeCd,0.0,eV/atom,
URuS$_{3}$,0.0,eV/atom,
Pr$_{5}$Ge$_{3}$C,0.0,eV/atom,
Sn$_{2}$Sb$_{2}$S$_{5}$,1.045,eV/atom,
CaNi$_{2}$,0.0,eV/atom,
Sr(In$_{4}$Rh)$_{2}$,0.0,eV/atom,
Ba$_{2}$Fe$_{2}$Se$_{2}$OF$_{2}$,2.0058,eV/atom,
Nd(GeRu)$_{2}$,0.0,eV/atom,
Bi$_{2}$CO$_{5}$,1.0710999999999995,eV/atom,
K$_{3}$Li$_{3}$TeO$_{6}$,2.6948,eV/atom,
Ce$_{2}$Zn$_{4}$Ru,0.0,eV/atom,
HgO,1.2429999999999999,eV/atom,
BaS$_{4}$O$_{13}$,4.6756,eV/atom,
LiSm(CuP)$_{2}$,0.0,eV/atom,
YMg,0.0,eV/atom,
LiVO$_{2}$,1.7771,eV/atom,
S,2.5657,eV/atom,
Cs$_{3}$Np(Cl$_{2}$O)$_{2}$,0.3642000000000001,eV/atom,
CoP$_{2}$,0.43599999999999994,eV/atom,
KHSO$_{4}$,5.4306,eV/atom,
As$_{4}$S$_{5}$,1.9867,eV/atom,
SrNi$_{9}$P$_{5}$,0.0931999999999995,eV/atom,
Ti$_{5}$Te$_{4}$,0.0,eV/atom,
ZnS,2.0385,eV/atom,
LiMgPO$_{4}$,5.4297,eV/atom,
PrGe$_{2}$,0.0,eV/atom,
Cd$_{3}$PCl$_{3}$,1.8279,eV/atom,
RbCrH$_{4}$(C$_{2}$O$_{5}$)$_{2}$,3.1132,eV/atom,[Cr+3].[Rb+].O=C([O-])C(=O)[O-].O=C([O-])C(=O)[O-].O.O
Na$_{3}$La$_{9}$B$_{8}$O$_{27}$,4.0102,eV/atom,
CaMg$_{2}$Ni$_{9}$,0.0,eV/atom,
Er$_{7}$Rh$_{3}$,0.0,eV/atom,
NdCu$_{3}$(RuO$_{3}$)$_{4}$,0.0,eV/atom,
Pb,0.0,eV/atom,
RbP(HO)$_{2}$,5.1547,eV/atom,
Rb$_{4}$Hf$_{3}$S$_{14}$,1.9401000000000002,eV/atom,
MgH$_{2}$(CO$_{2}$)$_{2}$,4.8844,eV/atom,
SrCr(Si$_{2}$O$_{5}$)$_{2}$,3.2707,eV/atom,
RbMnBi,0.0,eV/atom,
NO$_{2}$,0.8807000000000003,eV/atom,
Cs$_{6}$K$_{3}$AlSb$_{4}$,0.6537000000000002,eV/atom,
HoCoSi$_{2}$,0.0,eV/atom,
KHS,3.2295,eV/atom,
Ba$_{2}$NiF$_{6}$,4.5169,eV/atom,
LaSi,0.0,eV/atom,
Cs$_{2}$Tb$_{6}$Te$_{7}$N$_{2}$,0.7322000000000002,eV/atom,
Y$_{2}$Si$_{2}$O$_{7}$,5.1098,eV/atom,
Gd$_{2}$Be$_{2}$GeO$_{7}$,3.2535999999999996,eV/atom,
V$_{3}$Pd,0.0,eV/atom,
Er$_{3}$CuSiS$_{7}$,1.8759999999999994,eV/atom,
IrC,0.0,eV/atom,
GaIr,0.0,eV/atom,
Al$_{2}$Co$_{3}$(SiO$_{4}$)$_{3}$,2.9508,eV/atom,
Ce$_{2}$Te$_{4}$O$_{11}$,0.0,eV/atom,
NaLi$_{2}$PO$_{4}$,5.1689,eV/atom,
TlSnPS$_{4}$,1.8235000000000001,eV/atom,
TlInAs$_{2}$O$_{7}$,2.992,eV/atom,
Yb(GaS$_{2}$)$_{2}$,2.5686,eV/atom,
LiSO$_{3}$F,5.7916,eV/atom,
Pd(XeF$_{8}$)$_{2}$,1.4046000000000003,eV/atom,
TcB,0.0,eV/atom,
ZrVF$_{6}$,2.4087,eV/atom,
Hf$_{3}$Ni$_{7}$,0.0,eV/atom,
Li$_{2}$Ni(SO$_{4}$)$_{2}$,4.045400000000001,eV/atom,
Na$_{6}$MnCl$_{8}$,2.5589000000000004,eV/atom,
Tm$_{2}$InPd$_{2}$,0.0,eV/atom,
NdPd$_{2}$,0.0,eV/atom,
DyCuGe,0.0,eV/atom,
TlF$_{3}$,1.2591,eV/atom,
Cr$_{3}$CdTe$_{4}$,0.0,eV/atom,
Cu$_{2}$SiS$_{3}$,1.1124999999999998,eV/atom,
Na$_{8}$Hg$_{3}$,0.0,eV/atom,
CsEuF$_{3}$,0.0,eV/atom,
Lu$_{2}$CdSe$_{4}$,0.6974999999999998,eV/atom,
KNa$_{2}$,0.0,eV/atom,
SnH$_{8}$(NF$_{3}$)$_{2}$,5.114599999999999,eV/atom,
NpSi,0.0,eV/atom,
Nd$_{3}$CuGeS$_{7}$,1.6757999999999997,eV/atom,
Pr$_{5}$C$_{2}$Br$_{9}$,1.5333999999999999,eV/atom,
USi$_{3}$,0.0,eV/atom,
ZnSO$_{4}$,4.2625,eV/atom,
Ce$_{5}$Mg$_{41}$,0.0,eV/atom,
BaAl$_{2}$O$_{4}$,3.9419000000000004,eV/atom,
Na$_{2}$Mn$_{2}$O$_{3}$,0.28820000000000023,eV/atom,
Na$_{2}$NpH$_{2}$(CO$_{3}$)$_{3}$,0.1942999999999997,eV/atom,
Na$_{3}$AlH$_{10}$C$_{6}$O$_{17}$,3.2651000000000003,eV/atom,
Ba$_{2}$FeMoO$_{6}$,0.0,eV/atom,
CuAsF$_{7}$,0.0022999999999999687,eV/atom,
GaCuO$_{2}$,0.09989999999999988,eV/atom,
CaFeSO,0.0,eV/atom,
Sc$_{3}$SnB,0.0,eV/atom,
Na$_{5}$P$_{3}$(H$_{3}$O$_{4}$)$_{4}$,4.726999999999999,eV/atom,
YCo$_{3}$B$_{2}$,0.0,eV/atom,
Li$_{2}$Cr$_{2}$H$_{4}$O$_{9}$,2.669,eV/atom,
BaCoS$_{2}$,0.0,eV/atom,
Eu$_{2}$B$_{4}$Rh$_{5}$,0.0,eV/atom,
SmSi$_{3}$Ir,0.0,eV/atom,
CsN,0.0,eV/atom,
Al$_{2}$ZnSe$_{4}$,2.1510999999999996,eV/atom,
Mn$_{2}$SnC$_{10}$BrO$_{10}$,1.9026,eV/atom,
CuAg$_{5}$As$_{3}$O$_{11}$,0.0,eV/atom,
GaSi(MoS$_{2}$)$_{4}$,0.02210000000000001,eV/atom,
RbHoSe$_{2}$,1.9620000000000002,eV/atom,
CoSbS,0.0,eV/atom,
CsU$_{6}$F$_{25}$,0.01100000000000012,eV/atom,
Er$_{2}$Au,0.0,eV/atom,
K$_{2}$Sn(HO)$_{6}$,3.6753,eV/atom,
CdBr$_{2}$,2.9379999999999997,eV/atom,
Er(CuGe)$_{2}$,0.0,eV/atom,
Zr$_{5}$CuSn$_{3}$,0.0,eV/atom,
SiH$_{21}$C$_{6}$N$_{2}$OF$_{5}$,5.644399999999999,eV/atom,
Nd$_{12}$Cu$_{6}$O$_{25}$,0.0,eV/atom,
TbMgSn,0.0,eV/atom,
Na$_{2}$LiAlH$_{6}$,2.8483,eV/atom,
Sr$_{2}$ZnMoO$_{6}$,2.4322,eV/atom,
YRh$_{2}$,0.0,eV/atom,
Tl$_{2}$Rh$_{3}$S$_{2}$,0.0,eV/atom,
Mg(RhO$_{2}$)$_{2}$,1.1521,eV/atom,
SmTiGe,0.0,eV/atom,
LiScI$_{3}$,0.0,eV/atom,
Sb$_{2}$S$_{2}$O,1.2374,eV/atom,
LiFePHO$_{5}$,2.4248,eV/atom,
Nb$_{2}$Pd$_{3}$Se$_{8}$,0.4910000000000001,eV/atom,
CaV$_{2}$O$_{6}$,2.9196,eV/atom,
SrCrF$_{4}$,3.6107,eV/atom,
Nd$_{2}$O$_{3}$,3.6365,eV/atom,
BaTm$_{2}$NiO$_{5}$,2.1495999999999995,eV/atom,
CrCo$_{3}$C$_{16}$NO$_{14}$,1.608,eV/atom,
SmSiNi$_{4}$,0.0,eV/atom,
Mg$_{15}$Si$_{2}$Ir$_{5}$,0.0,eV/atom,
Na$_{3}$WN$_{3}$,1.7679,eV/atom,
DyInAu,0.0,eV/atom,
Ca$_{2}$MnFeO$_{5}$,0.0,eV/atom,
Ca$_{2}$Se$_{3}$O$_{8}$,3.4251,eV/atom,
NaNiF$_{3}$,4.610799999999999,eV/atom,
CaMgB$_{6}$H$_{12}$O$_{17}$,5.5362,eV/atom,