formula,Property band_gap,Property band_gap units,Property SMILES
EuPd$_{2}$,0.012800000000000367,eV/atom,
Fe$_{4}$P$_{3}$(HO$_{5}$)$_{3}$,2.0256,eV/atom,
DyInCu$_{4}$,0.043999999999999595,eV/atom,
VCrO$_{4}$,1.9112,eV/atom,
Tb$_{2}$In$_{16}$Pt$_{7}$,0.0,eV/atom,
TlRe$_{6}$Se$_{8}$Cl$_{3}$,1.4346999999999999,eV/atom,
RbTa(GeO$_{3}$)$_{3}$,3.473,eV/atom,
Cs$_{3}$AlAs$_{2}$,0.7389000000000001,eV/atom,
ErMn$_{12}$,0.0,eV/atom,
NaSn$_{4}$(PO$_{4}$)$_{3}$,3.7411000000000003,eV/atom,
Th$_{2}$Ni$_{7}$,0.0,eV/atom,
Ca$_{4}$Nb$_{2}$O$_{9}$,3.2640999999999996,eV/atom,
Al$_{3}$Pd$_{2}$,0.0,eV/atom,
Tm(FeO$_{2}$)$_{2}$,0.0,eV/atom,
Ag$_{3}$PSe$_{4}$,0.1682999999999999,eV/atom,
FeH,0.0,eV/atom,
CeMgAg,0.0,eV/atom,
K$_{2}$Te,2.1383,eV/atom,
KFeCl$_{4}$,1.2994,eV/atom,
AgNO$_{3}$,1.8539,eV/atom,
Sn$_{2}$SO$_{5}$,3.5104,eV/atom,
TlBi,0.0,eV/atom,
Sr$_{3}$SiO$_{5}$,3.7602999999999995,eV/atom,
MgSnAu,0.0,eV/atom,
CeSb$_{3}$Pd,0.0,eV/atom,
CuTe$_{2}$Cl,0.5969000000000002,eV/atom,
Zn$_{2}$As$_{2}$O$_{7}$,2.1717,eV/atom,
Be$_{5}$Au,0.0,eV/atom,
MnH$_{10}$CNCl$_{3}$O$_{2}$,3.8341,eV/atom,
VF$_{2}$,2.2511,eV/atom,
LaSe$_{2}$,0.0,eV/atom,
La$_{2}$Ga$_{10}$Ni,0.0,eV/atom,
KBiP$_{2}$S$_{7}$,2.4445000000000006,eV/atom,
MoAs,0.0,eV/atom,
Zr$_{6}$FeSb$_{2}$,0.0,eV/atom,
SiO$_{2}$,4.5916,eV/atom,
K$_{4}$HgP$_{2}$,0.9356000000000001,eV/atom,
SrClF,5.9367,eV/atom,
LiTe(H$_{3}$N)$_{4}$,1.2814999999999999,eV/atom,
ScCoC$_{2}$,0.0,eV/atom,
PrAlO$_{3}$,3.038400000000001,eV/atom,
Ca(NiP)$_{2}$,0.0,eV/atom,
B$_{2}$O$_{3}$,8.3486,eV/atom,
Na$_{3}$VH$_{6}$O$_{7}$,3.9991,eV/atom,
SmGeRh,0.0,eV/atom,
U(MoO$_{4}$)$_{2}$,0.0,eV/atom,
Sr$_{2}$Li$_{3}$NbN$_{4}$,2.1148000000000002,eV/atom,
Ta$_{5}$Sb$_{4}$,0.0,eV/atom,
BaDyCuTe$_{3}$,0.5288000000000004,eV/atom,
Sc$_{7}$(CCl$_{5}$)$_{2}$,0.0,eV/atom,
BaTi$_{2}$Sb$_{2}$O,0.0,eV/atom,
K$_{2}$NaAg$_{3}$(CN)$_{6}$,2.7260999999999997,eV/atom,
TlSn,0.0,eV/atom,
UNiSb$_{2}$,0.0,eV/atom,
V$_{2}$CdO$_{4}$,0.0,eV/atom,
Zn(AuF$_{4}$)$_{2}$,1.6950000000000003,eV/atom,
USeO$_{5}$,1.7328999999999999,eV/atom,
NdH$_{12}$(NO$_{5}$)$_{3}$,3.2416,eV/atom,
Cs$_{5}$U$_{2}$S$_{4}$ICl$_{8}$,0.2873999999999999,eV/atom,
Pb$_{2}$SO$_{5}$,3.1338,eV/atom,
ZrZnCu$_{2}$,0.0,eV/atom,
Gd$_{2}$CCl,0.0,eV/atom,
Be$_{22}$Re,0.0,eV/atom,
Mn$_{2}$SnW,0.0,eV/atom,
La(SiAu)$_{2}$,0.0,eV/atom,
ZrGeTe,0.0,eV/atom,
CuP$_{4}$Se$_{4}$I,1.6632,eV/atom,
PrBr$_{3}$,3.4284,eV/atom,
Tb$_{2}$FeC$_{4}$,0.0,eV/atom,
Ru,0.0,eV/atom,
Cr$_{3}$GaP$_{4}$,0.0,eV/atom,
Zr$_{4}$NbGa$_{3}$,0.0,eV/atom,
Pb$_{2}$S(O$_{2}$F)$_{2}$,3.7955,eV/atom,
SrV$_{2}$(P$_{2}$O$_{7}$)$_{2}$,1.5044999999999997,eV/atom,
NaAl$_{3}$NiCl$_{12}$,1.2562,eV/atom,
TbInAu,0.0,eV/atom,
Zr$_{6}$Al$_{2}$NiH$_{10}$,0.0,eV/atom,
Tb$_{2}$(NiB$_{2}$)$_{3}$,0.0,eV/atom,
Na$_{2}$MgCl$_{4}$,4.9056999999999995,eV/atom,
Li$_{2}$GaPd,0.0,eV/atom,
Cs$_{7}$NbIn$_{3}$As$_{5}$,1.1113,eV/atom,
LaInO$_{3}$,2.7507,eV/atom,
Hg$_{3}$(SBr)$_{2}$,1.487,eV/atom,
NaPWO$_{6}$,3.745,eV/atom,
Rb$_{2}$MnS$_{2}$,1.1062999999999998,eV/atom,
Pr$_{2}$Mn$_{2}$Se$_{2}$O$_{3}$,1.6471000000000005,eV/atom,
Gd(HO)$_{3}$,3.2235,eV/atom,
Ho(SiNi)$_{2}$,0.0,eV/atom,
CaFeO$_{2}$,0.04020000000000046,eV/atom,
LiGa,0.0,eV/atom,
MnCo$_{2}$Sn,0.0,eV/atom,
Li(Mg$_{2}$Si)$_{4}$,0.0,eV/atom,
Na$_{3}$(FeSe$_{2}$)$_{2}$,0.0,eV/atom,
NaP(WO$_{4}$)$_{2}$,0.40539999999999976,eV/atom,
BaSbClO$_{2}$,2.881,eV/atom,
La$_{2}$GaN$_{3}$,1.8087999999999997,eV/atom,
PRu,0.0,eV/atom,
Li$_{3}$NbO$_{4}$,3.7757,eV/atom,
Mg$_{8}$BRh$_{4}$,0.0,eV/atom,
Th$_{2}$S$_{3}$,0.0,eV/atom,
Tl$_{2}$GeSe$_{3}$,1.1404999999999998,eV/atom,
H$_{4}$SO$_{5}$,5.7206,eV/atom,
KRb$_{2}$MoF$_{6}$,3.6936999999999998,eV/atom,
MoSO$_{6}$,3.0745000000000005,eV/atom,
ErCu$_{2}$,0.0,eV/atom,
Nb$_{2}$Te$_{3}$,0.0,eV/atom,
DyCoC$_{2}$,0.0,eV/atom,
La$_{2}$CuO$_{4}$,0.0,eV/atom,
TmCu(WO$_{4}$)$_{2}$,1.2092,eV/atom,
AuSO$_{4}$,1.65,eV/atom,
NaSn$_{2}$(PO$_{4}$)$_{3}$,2.9913999999999996,eV/atom,
LuP$_{5}$,0.18769999999999953,eV/atom,
ReH$_{8}$(NCl$_{3}$)$_{2}$,1.0107000000000002,eV/atom,
MgH$_{10}$CO$_{8}$,4.7946,eV/atom,
BaBrCl,4.9288,eV/atom,
LiCaGe$_{2}$,0.0,eV/atom,
Bi$_{2}$Te$_{5}$Pb$_{2}$,0.18550000000000022,eV/atom,
TlIn(PSe$_{3}$)$_{2}$,1.4263000000000003,eV/atom,
GeBr$_{2}$,2.597,eV/atom,
KCa$_{9}$Mn(PO$_{4}$)$_{7}$,4.5046,eV/atom,
Ba$_{2}$MnSi$_{2}$ClO$_{7}$,1.3283999999999998,eV/atom,
SF$_{6}$,5.775500000000001,eV/atom,FS(F)(F)(F)(F)F
Nb(Te$_{2}$I$_{3}$)$_{2}$,0.7654000000000001,eV/atom,
Sr$_{2}$BN$_{2}$Cl,2.7508,eV/atom,
BH$_{11}$C$_{4}$NClF$_{4}$,6.373200000000001,eV/atom,F[B-](F)(F)F.ClC[N+](C)(C)C
MnSiNi,0.0,eV/atom,
Cu$_{3}$AsS$_{4}$,0.0,eV/atom,
SbS$_{8}$Cl$_{3}$,2.8448,eV/atom,
HoMnB$_{4}$,0.0,eV/atom,
SiC,1.7478999999999996,eV/atom,
TbCl,0.0,eV/atom,
Te$_{3}$Pt$_{2}$,0.0,eV/atom,
MnSn(BO$_{3}$)$_{2}$,2.5552,eV/atom,
Yb$_{2}$InCu$_{2}$,0.0,eV/atom,
Cs$_{3}$CoCl$_{5}$,0.8953000000000001,eV/atom,
Ca(SiNi)$_{2}$,0.0,eV/atom,
BaP$_{2}$(XeF$_{5}$)$_{4}$,2.6848,eV/atom,
TbIn$_{5}$Co,0.0,eV/atom,
Zr$_{5}$Sb$_{3}$C,0.0,eV/atom,
Fe$_{7}$S$_{8}$,0.0,eV/atom,
TaNO,1.9319999999999995,eV/atom,
CsNb(BO$_{3}$)$_{2}$,3.2991,eV/atom,
Sm$_{3}$Ga$_{5}$O$_{12}$,3.1576,eV/atom,
TlAsF$_{6}$,4.6463,eV/atom,
Li$_{3}$P$_{7}$,1.7927,eV/atom,
Fe$_{4}$P,0.0,eV/atom,
YbCuGe,0.0,eV/atom,
Li(CuO)$_{2}$,0.0,eV/atom,
Ca$_{4}$GdB$_{3}$O$_{10}$,3.2691,eV/atom,
MgAs$_{2}$(XeF$_{9}$)$_{2}$,2.6712,eV/atom,
SmAlCu,0.0,eV/atom,
ZnS,2.0201000000000002,eV/atom,
SiBr$_{3}$,3.9433,eV/atom,
Zr$_{2}$P,0.0,eV/atom,
Rb$_{2}$V$_{3}$O$_{8}$,2.0559999999999996,eV/atom,
Tb$_{4}$HfAl$_{15}$,0.0,eV/atom,
H$_{6}$Os$_{5}$Pt(CO)$_{16}$,1.8719000000000001,eV/atom,
BaZnP$_{2}$O$_{7}$,4.3393,eV/atom,
Na$_{4}$Sc$_{2}$(PO$_{4}$)$_{3}$,0.3633999999999995,eV/atom,
Bi$_{5}$IO$_{7}$,2.4210000000000003,eV/atom,
Be$_{2}$BHO$_{4}$,5.8665,eV/atom,
Y(CuO$_{2}$)$_{2}$,0.0,eV/atom,
Sm(AgGe)$_{2}$,0.0,eV/atom,
PrNi$_{3}$,0.0,eV/atom,
HfCuSi$_{2}$,0.0,eV/atom,
CaTeO$_{3}$,3.1241000000000003,eV/atom,
Eu(GaSb)$_{2}$,0.0,eV/atom,
Li$_{2}$GeAu,0,eV/atom,
Rb$_{2}$S,1.9641,eV/atom,
HoS$_{2}$,0,eV/atom,
Cs$_{2}$Se$_{5}$,1.0176999999999998,eV/atom,
Na$_{4}$Sn$_{3}$S$_{8}$,1.6505999999999998,eV/atom,
YbAg,0.0,eV/atom,
SnH$_{10}$Cl$_{4}$O$_{5}$,3.2828,eV/atom,
Pr$_{3}$AlN,0.0,eV/atom,
Be$_{2}$C,1.1636999999999995,eV/atom,
Ta$_{2}$FeO$_{6}$,2.3539000000000003,eV/atom,
Sc(BC)$_{2}$,0.0,eV/atom,
FeCu$_{2}$GeSe$_{4}$,0.0,eV/atom,
SbClO,3.0971,eV/atom,
GaTe,1.0066000000000002,eV/atom,
P$_{2}$O$_{2}$F$_{3}$,5.3101,eV/atom,
Gd$_{2}$Br$_{3}$N,1.8727,eV/atom,
Ru$_{3}$C$_{10}$(NO$_{6}$)$_{2}$,1.0938,eV/atom,
KNaNdTaO$_{5}$,3.5102,eV/atom,
LaGa,0.0,eV/atom,
Yb$_{2}$Ge$_{2}$Ir,0.0,eV/atom,
Sr(NiP$_{2}$)$_{2}$,0.0,eV/atom,
Sc$_{2}$Cu$_{3}$H$_{36}$(NF)$_{12}$,0.0,eV/atom,
Re$_{2}$(PCl$_{8}$)$_{3}$,0.0044999999999999485,eV/atom,
CaCdAu,0.0,eV/atom,
Si$_{2}$Mo,0.09379999999999988,eV/atom,
CoW,0.0,eV/atom,
Zr$_{2}$H$_{3}$Pd,0.0,eV/atom,
Na$_{3}$MgP$_{2}$HO$_{8}$,4.863899999999999,eV/atom,
Nd$_{2}$MoC$_{2}$,0.0,eV/atom,
CeZn(BO$_{2}$)$_{5}$,0.13739999999999952,eV/atom,
Ca$_{4}$YFe$_{5}$O$_{13}$,1.0376000000000003,eV/atom,
TbZn,0.0,eV/atom,
Cs$_{2}$NiF$_{6}$,2.3912,eV/atom,
K$_{3}$Al$_{2}$As$_{3}$,1.1862,eV/atom,
Th(PS$_{3}$)$_{2}$,2.4371,eV/atom,
Li$_{4}$MoO$_{5}$,2.8393999999999995,eV/atom,
EuNi$_{5}$P$_{3}$,0.0,eV/atom,
Na$_{2}$B$_{4}$O$_{7}$,4.618,eV/atom,
Na$_{2}$Sr$_{7}$Al$_{6}$F$_{34}$,6.9463,eV/atom,
BaNaP$_{3}$H$_{3}$(NO$_{2}$)$_{3}$,4.822,eV/atom,
AuBr,1.6885,eV/atom,
Ca$_{3}$CoRhO$_{6}$,0.0,eV/atom,
Rb$_{3}$MnF$_{7}$,1.6078000000000001,eV/atom,
CrTe$_{4}$Au,0.0,eV/atom,
SiAg$_{8}$(SO$_{2}$)$_{2}$,0.0,eV/atom,
CeCuS$_{2}$,0.0,eV/atom,
NaPb$_{3}$,0.0,eV/atom,
B$_{3}$H$_{12}$CN$_{4}$O,3.0203,eV/atom,
K$_{2}$PtI$_{6}$,0.8659999999999999,eV/atom,
Pr$_{2}$Nb$_{11}$O$_{30}$,0.0,eV/atom,
Pu$_{2}$O$_{3}$,0.0,eV/atom,
CoNi(PO$_{3}$)$_{4}$,3.0822,eV/atom,
YbTlS$_{2}$,0.0,eV/atom,
Hg$_{2}$AsCl$_{2}$,1.3038999999999998,eV/atom,
SmFeB$_{4}$,0.0,eV/atom,
Ba$_{3}$N,0.0,eV/atom,
PuFeC$_{2}$,0.0,eV/atom,
SmSF,1.2296999999999998,eV/atom,
Sr$_{4}$Bi$_{6}$Se$_{13}$,0.48870000000000013,eV/atom,
Ti$_{2}$AlC,0.0,eV/atom,
La$_{2}$(SeO$_{3}$)$_{3}$,3.5120000000000005,eV/atom,
CaNi$_{3}$(P$_{2}$O$_{7}$)$_{2}$,4.0017,eV/atom,
PbCl$_{2}$,3.0279999999999996,eV/atom,
KPtNCl$_{3}$O,0.0,eV/atom,
Na$_{6}$U$_{2}$Mo$_{4}$O$_{21}$,2.0982,eV/atom,
Tb$_{4}$Ga$_{12}$Pd,0.0,eV/atom,
ErCoGe$_{2}$,0.0,eV/atom,
HoSiIr,0.0,eV/atom,
Co$_{3}$Ni,0.0,eV/atom,
HoCu$_{4}$Ag,0.0,eV/atom,
NbPRh,0.0,eV/atom,
VCoP,0.0,eV/atom,
Yb$_{2}$EuSe$_{4}$,0.0,eV/atom,
K(Cu$_{2}$Sb)$_{2}$,0.0,eV/atom,
K$_{2}$S$_{2}$NO$_{7}$,1.9921,eV/atom,
Y$_{6}$CoI$_{10}$,0.17499999999999982,eV/atom,
Zn$_{3}$Co$_{2}$(CN)$_{12}$,4.3247,eV/atom,
Hf$_{5}$Si$_{3}$,0.0,eV/atom,
MnGa$_{2}$Co,0.0,eV/atom,
Ca(GeRu)$_{2}$,0.0030999999999998806,eV/atom,
Sr$_{3}$Sn$_{13}$Rh$_{4}$,0.0,eV/atom,
Cs$_{5}$(KPb$_{6}$)$_{3}$,0.7385999999999999,eV/atom,
BaAgSF,1.4272999999999998,eV/atom,
LiCoAsO$_{4}$,2.2041000000000004,eV/atom,
NaAlH$_{24}$(SO$_{10}$)$_{2}$,5.3109,eV/atom,
Eu(FeAs)$_{2}$,0.0,eV/atom,
Sr$_{2}$UFeO$_{6}$,1.1307000000000005,eV/atom,
AlTlSiO$_{4}$,2.8133999999999997,eV/atom,
Cr$_{2}$P$_{4}$Pb$_{3}$O$_{16}$,2.4533,eV/atom,
NpBr$_{3}$,0.0,eV/atom,
K$_{2}$Te$_{2}$Pt,0.7917000000000001,eV/atom,
Cs$_{3}$H$_{5}$Pd,2.2702999999999998,eV/atom,
Rb$_{4}$GeO$_{4}$,2.4863,eV/atom,
GdAl$_{3}$(PbO$_{4}$)$_{2}$,2.9479,eV/atom,
SmGe$_{2}$,0.0,eV/atom,
CeGa$_{4}$Co$_{9}$,0.0,eV/atom,
Re$_{3}$(SCl)$_{7}$,1.6775000000000002,eV/atom,
TiMn$_{2}$O$_{4}$,1.3879999999999995,eV/atom,
NbAlNi$_{2}$,0.0,eV/atom,
Er$_{5}$C$_{2}$Br$_{9}$,0.8853000000000002,eV/atom,
Pr$_{4}$Se$_{3}$(O$_{5}$F$_{3}$)$_{2}$,3.9852,eV/atom,
AgBi$_{2}$F$_{12}$,0.39680000000000026,eV/atom,
K$_{2}$Ni(CN)$_{4}$,3.0257,eV/atom,
MnSnO$_{3}$,0.8775999999999993,eV/atom,
LiPr(SO$_{4}$)$_{2}$,5.3098,eV/atom,
Na$_{3}$PSe$_{4}$,1.1054000000000002,eV/atom,
UAg$_{2}$(SeO$_{4}$)$_{2}$,1.5089,eV/atom,
Sm$_{2}$BiO$_{2}$,0.0,eV/atom,
Bi$_{2}$WO$_{6}$,1.9044999999999996,eV/atom,
SbSe$_{2}$S(NF$_{3}$)$_{2}$,1.5549,eV/atom,
Pd(S$_{3}$N)$_{2}$,1.2357,eV/atom,
Li$_{7}$Br$_{3}$O$_{2}$,4.2454,eV/atom,
CeAlPd$_{2}$,0.0,eV/atom,
SiO$_{2}$,4.7884,eV/atom,
CsMgBO$_{3}$,3.1495999999999995,eV/atom,
Er$_{3}$InC,0.0,eV/atom,
Ba$_{2}$U(PO$_{5}$)$_{2}$,2.1186,eV/atom,
TlCu$_{2}$P$_{2}$O$_{7}$,0.3380000000000001,eV/atom,
TaTc,0.0,eV/atom,
Ti$_{5}$Si$_{3}$,0.0,eV/atom,
AlBP$_{2}$H$_{5}$NO$_{9}$,5.2797,eV/atom,
SiPbO$_{3}$,3.1566,eV/atom,
MnH$_{19}$C$_{6}$I$_{3}$N$_{2}$,2.427,eV/atom,
Li$_{4}$TaN$_{3}$,2.6752,eV/atom,
RbBO$_{2}$,3.9289,eV/atom,
CsLuCdTe$_{3}$,1.5453999999999994,eV/atom,
Mn$_{2}$As$_{2}$O$_{7}$,1.2487999999999997,eV/atom,
SmBeF$_{4}$,0.0,eV/atom,
HPbClO,3.3026,eV/atom,
KNa$_{22}$C$_{2}$S$_{9}$ClO$_{42}$,4.3544,eV/atom,
Rb$_{2}$RuO$_{4}$,0.5314999999999999,eV/atom,
NpB$_{2}$,0.0,eV/atom,
Lu$_{2}$(NiB$_{2}$)$_{3}$,0.0,eV/atom,
RbMnP$_{3}$HO$_{10}$,0.7619,eV/atom,
Al$_{10}$Si$_{2}$O$_{19}$,3.3810000000000002,eV/atom,
Ba$_{3}$Er$_{4}$O$_{9}$,3.2722000000000007,eV/atom,
V$_{2}$Cu$_{2}$O$_{7}$,0.0049000000000000155,eV/atom,
PrTlTe$_{2}$,1.5017000000000005,eV/atom,
TbBi,0.0,eV/atom,
Nd(Al$_{2}$Fe)$_{4}$,0.0,eV/atom,
Ba$_{6}$Ge$_{5}$N$_{2}$,0.0,eV/atom,
Ce$_{3}$Te$_{4}$,0.0,eV/atom,
Dy(Mo$_{3}$Se$_{4}$)$_{2}$,0.0,eV/atom,
As$_{4}$S$_{11}$(N$_{6}$Cl$_{7}$)$_{2}$,1.2271999999999998,eV/atom,
SnC,0.0,eV/atom,
Pb$_{3}$WCl$_{2}$O$_{5}$,3.0444,eV/atom,
YbC$_{6}$,0.0,eV/atom,
MnAl,0.0,eV/atom,
Hf$_{5}$FeTe$_{3}$,0.0,eV/atom,
Sr(MnGe)$_{2}$,0.0,eV/atom,
Cs$_{2}$H$_{4}$Pt,3.2534,eV/atom,
NbGeSb,0.0,eV/atom,
Lu$_{3}$AlN,0.0,eV/atom,
BaTeW$_{2}$O$_{9}$,3.4094,eV/atom,
Er(FeB)$_{2}$,0.0,eV/atom,
AsXe$_{2}$O$_{4}$F$_{9}$,2.1685,eV/atom,
NaZn$_{2}$H$_{3}$(SO$_{4}$)$_{2}$,4.3334,eV/atom,
FeBiO$_{3}$,1.9066,eV/atom,
PdSeO$_{3}$,1.0589,eV/atom,
Fe$_{2}$TeO$_{5}$,1.8884999999999996,eV/atom,
CsBrO$_{3}$,4.3026,eV/atom,
Ba$_{2}$InO$_{3}$F,2.0466999999999995,eV/atom,
Sr$_{2}$TmTaO$_{6}$,3.8822,eV/atom,
Ho(SiOs)$_{2}$,0.0,eV/atom,
CuCN$_{2}$,0.0,eV/atom,
K$_{2}$SmP$_{2}$S$_{7}$,2.2237999999999998,eV/atom,
ErS$_{2}$,0.5869,eV/atom,
Dy(IO$_{3}$)$_{3}$,3.5241,eV/atom,
Ba$_{2}$NdIrO$_{6}$,0.0,eV/atom,
BaAg,0.0,eV/atom,
MgSiSb$_{2}$,0.8174000000000001,eV/atom,
Tm$_{11}$(Ni$_{10}$C)$_{6}$,0.009200000000000763,eV/atom,
Er(SiAu)$_{2}$,0.0,eV/atom,
Ge(TeO$_{3}$)$_{2}$,3.8764999999999996,eV/atom,
In$_{2}$HgS$_{4}$,0.34830000000000005,eV/atom,
Ba$_{17}$Dy$_{16}$Zn$_{8}$Pt$_{4}$O$_{57}$,2.2995,eV/atom,
CaMn(SiO$_{3}$)$_{2}$,3.2619000000000002,eV/atom,
AlPO$_{4}$,2.9174999999999995,eV/atom,
Ta$_{4}$AlC$_{3}$,0.0,eV/atom,
SiO$_{2}$,5.6266,eV/atom,
Cs$_{2}$NaYBr$_{6}$,4.2176,eV/atom,
K$_{4}$CO$_{4}$,0.9476,eV/atom,
Ga$_{3}$Pt$_{2}$,0.0,eV/atom,
RbEuO$_{2}$,0.0,eV/atom,
TePdI$_{2}$,0.5150000000000001,eV/atom,
Cs$_{2}$MnSe$_{2}$,1.2429999999999999,eV/atom,
POsSe,0.5071000000000003,eV/atom,
Ce$_{6}$Ge$_{9}$(BO$_{15}$)$_{2}$,0.0,eV/atom,
Ag(Mo$_{3}$S$_{4}$)$_{2}$,0.0,eV/atom,
Nd$_{4}$Re$_{2}$O$_{11}$,0.4729000000000001,eV/atom,
CaAl$_{2}$O$_{4}$,4.3909,eV/atom,
U$_{2}$P$_{2}$O$_{9}$,0.22850000000000037,eV/atom,
La$_{4}$MgRu,0.0,eV/atom,
K$_{2}$H$_{4}$Pd,2.6477,eV/atom,
PrCuSn,0.0,eV/atom,
SmAlPd,0.0,eV/atom,
Li$_{3}$PrSb$_{2}$,0.0,eV/atom,
Na$_{4}$CO$_{4}$,1.5496,eV/atom,
NaEuGeO$_{4}$,0.0,eV/atom,
PBr$_{7}$,1.2227,eV/atom,
Mg$_{5}$H$_{8}$O$_{9}$,3.5747000000000004,eV/atom,
K$_{2}$Co$_{2}$(SO$_{4}$)$_{3}$,2.7184,eV/atom,
Ni$_{6}$Mo$_{6}$C,0,eV/atom,
Al$_{6}$H$_{16}$C$_{5}$(Cl$_{2}$O)$_{6}$,5.515700000000001,eV/atom,
K$_{3}$Sb$_{7}$(SO$_{3}$)$_{3}$,1.8339999999999996,eV/atom,
TlReO$_{4}$,3.3756,eV/atom,
DyBPd$_{3}$,0.0,eV/atom,
CdTeO$_{3}$,3.0793,eV/atom,
HfS$_{3}$,1.1326,eV/atom,
Np(SiRh)$_{2}$,0.0,eV/atom,
Li$_{3}$V$_{6}$O$_{13}$,0.6075999999999997,eV/atom,
CoH$_{2}$SeO$_{4}$,2.6596,eV/atom,
SmBS$_{3}$,2.389,eV/atom,
U$_{2}$SnPt$_{2}$,0.0,eV/atom,
Na$_{2}$CoS$_{2}$,0.0,eV/atom,
TlZnSClO$_{4}$,4.357100000000001,eV/atom,
ErCuS$_{2}$,1.7449000000000003,eV/atom,
CdWO$_{4}$,3.2878000000000003,eV/atom,
K$_{3}$CO$_{3}$F,3.8463,eV/atom,
K$_{2}$O$_{2}$,0.0,eV/atom,
HfAlCo$_{2}$,0.0,eV/atom,
HfCoP,0.06780000000000097,eV/atom,
Sr$_{2}$UNi,0.0,eV/atom,
PSN(Cl$_{2}$O)$_{2}$,4.0739,eV/atom,
NdN,0.0,eV/atom,
GeS,1.2375999999999996,eV/atom,
Rb$_{6}$Si$_{10}$O$_{23}$,4.0163,eV/atom,
MoPRh,0.0,eV/atom,
TbNi$_{4}$Au,0.0,eV/atom,
CsBO$_{6}$,0.0,eV/atom,
Rb$_{2}$CeCu$_{3}$Te$_{5}$,0.0,eV/atom,
Al$_{2}$CrCl$_{8}$,0.8876,eV/atom,
Mn$_{3}$InC,0.0,eV/atom,
SrCdAu,0.0,eV/atom,
ScSiRh,0.0,eV/atom,
LiCaAlN$_{2}$,2.7797,eV/atom,
Na$_{3}$LiMo$_{2}$(H$_{6}$O$_{7}$)$_{2}$,4.6221,eV/atom,
VH$_{8}$C$_{2}$NO$_{3}$,3.0763,eV/atom,
Ho$_{2}$Ru$_{2}$O$_{7}$,0.0,eV/atom,
LiCeSn$_{2}$,0.0,eV/atom,
Cl$_{2}$O,1.0529000000000002,eV/atom,
NdPO$_{4}$,5.562799999999999,eV/atom,
CsFeS$_{2}$,0.0,eV/atom,
Ga(MoSe$_{2}$)$_{4}$,0.2071000000000005,eV/atom,
VBiO$_{4}$,2.2989999999999995,eV/atom,
Ca$_{4}$Al$_{6}$TeO$_{12}$,3.1457,eV/atom,
LiInTe$_{2}$,1.3847,eV/atom,
K$_{2}$VH$_{4}$C$_{4}$O$_{9}$,2.9132,eV/atom,
Sr$_{2}$Ga$_{2}$O$_{5}$,2.9485,eV/atom,
La$_{2}$NiIrO$_{6}$,0.0,eV/atom,
Yb$_{11}$(Ni$_{10}$C)$_{6}$,0.0,eV/atom,
K$_{2}$Pt(NO$_{2}$)$_{4}$,2.1193999999999997,eV/atom,
Cd$_{2}$SiO$_{4}$,1.7277,eV/atom,
TbH$_{3}$,0.0,eV/atom,
Sr$_{2}$InF$_{7}$,4.9452,eV/atom,
VCoSb,0.0,eV/atom,
Ba$_{2}$CoCu$_{2}$(SO)$_{2}$,0.0,eV/atom,
Lu$_{2}$Si$_{2}$O$_{7}$,5.199199999999999,eV/atom,
CsLa(SO$_{4}$)$_{2}$,4.3605,eV/atom,
K$_{3}$Gd(PO$_{4}$)$_{2}$,2.8376,eV/atom,
Zn$_{2}$SiO$_{4}$,2.3636,eV/atom,
EuZn$_{5}$,0.0,eV/atom,
Ba(FeO$_{2}$)$_{2}$,1.9016000000000002,eV/atom,
Lu$_{2}$V$_{2}$O$_{7}$,1.1487999999999996,eV/atom,
SrAl$_{12}$O$_{19}$,4.4463,eV/atom,
NaLi$_{5}$Sn$_{4}$,0.0,eV/atom,
Ba$_{5}$Re$_{3}$O$_{16}$,0.5103,eV/atom,
Yb$_{3}$TlC,0.0,eV/atom,
AlHg$_{2}$SbCl$_{4}$,0.8835,eV/atom,
Ba$_{2}$Ge,7.999999999999119E-4,eV/atom,
Sr$_{2}$Co(PO$_{4}$)$_{2}$,3.0105,eV/atom,
TaP,0.36080000000000023,eV/atom,
Sm$_{2}$(CuAs)$_{3}$,0.0,eV/atom,
GaSe,1.2353999999999998,eV/atom,
Cs$_{4}$K$_{2}$Cu(SiO$_{4}$)$_{2}$,0.6454999999999997,eV/atom,
CuP$_{2}$PbO$_{7}$,0.6361000000000003,eV/atom,
CsFeO$_{2}$,1.9645,eV/atom,
NaTe,0.5325000000000002,eV/atom,
CaP$_{2}$(H$_{2}$O$_{3}$)$_{3}$,5.5328,eV/atom,[Ca+2].O=P([O-])(O)O.O=P([O-])(O)O.O
NdTe$_{2}$Se,0.0,eV/atom,
Ho$_{4}$Sb$_{3}$,0.0,eV/atom,
NdSbPd,0.0,eV/atom,
Sm(GeIr)$_{2}$,0.0,eV/atom,
ScGeAu,0.0,eV/atom,
NaCd$_{4}$(PO$_{4}$)$_{3}$,2.479,eV/atom,
Ta$_{2}$Ni$_{3}$S$_{8}$,0.5258000000000003,eV/atom,
KBa$_{4}$Sb$_{3}$O,1.0220000000000002,eV/atom,
Rb$_{3}$U$_{2}$Ge$_{2}$O$_{11}$,0.19459999999999988,eV/atom,
Nd$_{2}$W$_{2}$O$_{9}$,3.5017000000000005,eV/atom,
Ce$_{4}$C$_{2}$Br$_{5}$,0.0,eV/atom,
Cs$_{2}$As$_{8}$S$_{13}$,1.5193999999999999,eV/atom,
PuB$_{12}$,0.0,eV/atom,
VCl$_{3}$O,2.8945,eV/atom,
SiNi,0.0,eV/atom,
NdMgSi$_{2}$,0.0,eV/atom,
Ba$_{2}$CuSi$_{2}$O$_{7}$,0.11129999999999995,eV/atom,
Nd$_{5}$Sn$_{3}$,0.0,eV/atom,
SrGaSiH,0.4166000000000003,eV/atom,
KInSe$_{2}$,1.4733,eV/atom,
Mn(Ni$_{3}$O$_{4}$)$_{2}$,1.3056,eV/atom,
FeCo$_{3}$,0.0,eV/atom,
Ti$_{2}$Pd$_{3}$,0.0,eV/atom,
Y(PO$_{3}$)$_{3}$,5.7608,eV/atom,
Rh$_{2}$O$_{3}$,0.5594000000000001,eV/atom,
Si$_{2}$Ni$_{5}$P$_{3}$,0.0,eV/atom,
ErPbAu,0.0,eV/atom,
Sr$_{2}$MnGaO$_{5}$,0.0,eV/atom,
CsPSO$_{2}$,3.9823,eV/atom,
CeTi$_{2}$O$_{6}$,1.8855,eV/atom,
SiO$_{2}$,5.6346,eV/atom,
YAsS,0.15700000000000003,eV/atom,
In$_{2}$Te$_{2}$MoO$_{10}$,2.6497999999999995,eV/atom,
K$_{2}$Be(Si$_{2}$O$_{5}$)$_{2}$,4.6976,eV/atom,
SnS,0.9055,eV/atom,
MgBP(H$_{3}$O$_{4}$)$_{2}$,5.3032,eV/atom,
LaSO,1.5305,eV/atom,
ThAl$_{3}$,0.0,eV/atom,
Ba(AgS)$_{2}$,0.8761000000000001,eV/atom,
Li$_{7}$VN$_{4}$,3.011,eV/atom,
Sr$_{2}$FeO$_{4}$,0,eV/atom,
BeO,6.8508,eV/atom,
SrCu(SeO$_{3}$)$_{2}$,0.40789999999999993,eV/atom,
SiO$_{2}$,5.377400000000001,eV/atom,
Si$_{3}$(BiO$_{3}$)$_{4}$,3.8978999999999995,eV/atom,
Al$_{2}$Os,0.30320000000000036,eV/atom,
K$_{2}$GeAs$_{2}$,0.8328000000000002,eV/atom,
Er$_{4}$Si$_{2}$S$_{3}$O$_{7}$,2.6296,eV/atom,
Pb$_{2}$O$_{3}$,1.0516000000000005,eV/atom,
C$_{2}$S(NCl)$_{3}$,3.1683000000000003,eV/atom,ClC=1N=C(Cl)NS(Cl)N1
MnCoAs,0.0,eV/atom,
NaLaH$_{2}$S$_{2}$O$_{9}$,4.6572000000000005,eV/atom,
W(ClO)$_{2}$,2.0632,eV/atom,
ErCo$_{2}$,0.0,eV/atom,
KH(IO$_{3}$)$_{2}$,3.3546000000000005,eV/atom,
PtS,0.3669000000000002,eV/atom,
Ca$_{2}$In,0.0,eV/atom,
Sr(NiGe)$_{2}$,0.0,eV/atom,
NaNb$_{10}$O$_{18}$,0.13569999999999993,eV/atom,
CrCoTe,0.0,eV/atom,
K$_{4}$Ta$_{2}$S$_{11}$,1.7096000000000002,eV/atom,
Pd(NCl)$_{2}$,0.1869,eV/atom,
Ba$_{2}$Tb$_{2}$Mn$_{4}$O$_{11}$,0.2585000000000002,eV/atom,
KLaSiS$_{4}$,2.9376999999999995,eV/atom,
NdGe$_{2}$Rh,0.0,eV/atom,
EuC$_{10}$,0.2464000000000004,eV/atom,[C].[C].[C].[C].[C].[C].[C].[C].[C].[C].[C].[C].[C].[C].[C].[C].[C].[C].[C].[C].[C].[C].[C].[C].[C].[C].[C].[C].[C].[C].[C].[C].[C].[C].[C].[C].[C].[C].[C].[C].[C].[C].[C].[C].[C].[C].[C].[C].[C].[C].[C].[C].[C].[C].[C].[C].[C].[C].[C].[C].[Eu].[Eu].[Eu].[Eu].[Eu].[Eu]
ErSeI,2.309,eV/atom,
Li$_{2}$Co$_{3}$(SeO$_{3}$)$_{4}$,2.6422,eV/atom,
CaFe(GeO$_{3}$)$_{2}$,1.6032000000000002,eV/atom,
YAlSi,0.0,eV/atom,
Li(YSi)$_{2}$,0.0,eV/atom,
ZrI$_{4}$,2.0575,eV/atom,
Pr$_{3}$OsI$_{3}$,0.17029999999999923,eV/atom,
NaMgSb,1.0359000000000003,eV/atom,
Mg$_{3}$P$_{2}$,1.1058,eV/atom,
Cs$_{2}$Li$_{5}$(BO$_{2}$)$_{7}$,4.357799999999999,eV/atom,
SrLi$_{4}$N$_{2}$,0.8873999999999999,eV/atom,
HfSiRu,0.0,eV/atom,
Na$_{2}$ZrSi$_{2}$O$_{7}$,4.5653,eV/atom,
CuAg$_{4}$TeO$_{6}$,0.0,eV/atom,
CrWN$_{2}$,0.0,eV/atom,
MgTlAs(H$_{6}$O$_{5}$)$_{2}$,4.3811,eV/atom,
Hf(FeSi)$_{2}$,0.0,eV/atom,
K$_{3}$Co(CN)$_{6}$,4.3253,eV/atom,
BaMn$_{2}$O$_{3}$,0.4585999999999997,eV/atom,
BaNaP,0.8555000000000001,eV/atom,
Ba(Cd$_{2}$Pt)$_{2}$,0.0,eV/atom,
La$_{3}$MnAlS$_{7}$,1.2419000000000002,eV/atom,
Tm$_{2}$Ge$_{5}$Ru$_{3}$,0.07769999999999921,eV/atom,
BeAlSiHO$_{5}$,5.360499999999999,eV/atom,
SrLa$_{6}$OsI$_{12}$,0.0,eV/atom,
EuCu,0.0,eV/atom,
NaVO$_{3}$,3.2338000000000005,eV/atom,
Cs$_{2}$LiFe(CN)$_{6}$,0.0,eV/atom,
K$_{4}$Mn$_{3}$F$_{12}$,0.84,eV/atom,
LiYb(CuP)$_{2}$,0.0,eV/atom,
TmP$_{5}$O$_{14}$,5.2284,eV/atom,
RbCuCl$_{3}$,0.23970000000000002,eV/atom,
Sr$_{2}$Pb$_{3}$,0.0,eV/atom,
Ca$_{2}$Y$_{2}$Si$_{4}$H$_{2}$CO$_{16}$,5.1278,eV/atom,
Cd$_{2}$Os$_{2}$O$_{7}$,0.0,eV/atom,
HfNbP,0.0,eV/atom,