formula,Property band_gap,Property band_gap units,Property SMILES
Tb(Al$_{2}$Cr)$_{4}$,0.0,eV/atom,
Rb$_{2}$ZrF$_{6}$,6.6418,eV/atom,
Hf$_{2}$Au,0.0,eV/atom,
BaCe$_{2}$FeS$_{5}$,0.0,eV/atom,
MoS$_{2}$N$_{2}$Cl$_{5}$,0.5399,eV/atom,
Bi$_{7}$RhBr$_{8}$,1.0126000000000002,eV/atom,
PrPdPb,0.0,eV/atom,
InBiS$_{3}$,1.3794000000000004,eV/atom,
CeCl$_{3}$,0.0,eV/atom,
Cu$_{8}$O,0.0,eV/atom,
As$_{2}$(SO$_{4}$)$_{3}$,4.5714,eV/atom,
CaCoSi,0.0,eV/atom,
YbAlNi,0.0,eV/atom,
Bi$_{4}$Se$_{3}$,0.0,eV/atom,
ZnAu$_{2}$(CN)$_{4}$,2.6094,eV/atom,
Ti$_{3}$(BiO$_{3}$)$_{4}$,2.2583,eV/atom,
FeP$_{3}$H$_{5}$NO$_{10}$,2.6111,eV/atom,[Fe+3].O=P([O-])([O-])OP(=O)([O-])OP(=O)([O-])O.[NH4+]
FeSe$_{2}$,0.0,eV/atom,
Pu(SiNi)$_{2}$,0.0,eV/atom,
Na$_{2}$Pd$_{3}$O$_{4}$,0.43409999999999993,eV/atom,
CeTmS$_{3}$,0.0,eV/atom,
Tc$_{7}$B$_{3}$,0.0,eV/atom,
LiEuTiO$_{4}$,0.0,eV/atom,
LiAlSiO$_{4}$,5.0525,eV/atom,
Gd$_{2}$(MoO$_{4}$)$_{3}$,0.0,eV/atom,
SrLi$_{3}$MnN$_{3}$,0.0,eV/atom,
Li$_{2}$GaIr,0.0,eV/atom,
Na$_{3}$Co(NO$_{2}$)$_{6}$,2.531,eV/atom,
DyB$_{2}$,0.0,eV/atom,
BaMnSbF,0.12990000000000013,eV/atom,
Tb$_{2}$Ni$_{2}$Sn,0.0,eV/atom,
SiO$_{2}$,5.5245,eV/atom,
TaCl$_{4}$,1.2222,eV/atom,
ErPd$_{2}$,0.0,eV/atom,
Na$_{4}$SnO$_{3}$,1.8885999999999998,eV/atom,
CaMn$_{3}$V$_{4}$O$_{12}$,0.0,eV/atom,
BaFe$_{2}$(PO$_{4}$)$_{2}$,0.3376000000000001,eV/atom,
TiH$_{12}$(NF$_{2}$)$_{4}$,4.5618,eV/atom,
LaPdPb,0.0,eV/atom,
Li$_{2}$BeSiO$_{4}$,5.8679,eV/atom,
Li$_{4}$SiO$_{4}$,4.7841000000000005,eV/atom,
BaTaF$_{7}$,5.691,eV/atom,
SrP$_{3}$,0.0138000000000007,eV/atom,
LuGeRu,0.0,eV/atom,
CsSO$_{4}$,0.08100000000000007,eV/atom,
TiAs,0.0,eV/atom,
DyCo$_{3}$,0.0,eV/atom,
SiRu,0.0,eV/atom,
Sr(InS$_{2}$)$_{2}$,2.2643000000000004,eV/atom,
Ho$_{3}$GaO$_{6}$,3.5583,eV/atom,[Ho+3].[Ho+3].[Ho+3].O=C([O-])C12OC2C3(O)OC3(O)C(O)=C1.O=C([O-])C12OC2C3(O)OC3(O)C(O)=C1.O=C([O-])C12OC2C3(O)OC3(O)C(O)=C1.O=C([O-])C12OC2C3(O)OC3(O)C(O)=C1.O=C([O-])C12OC2C3(O)OC3(O)C(O)=C1.O=C([O-])C12OC2C3(O)OC3(O)C(O)=C1.O=C([O-])C12OC2C3(O)OC3(O)C(O)=C1.O=C([O-])C12OC2C3(O)OC3(O)C(O)=C1.O=C([O-])C12OC2C3(O)OC3(O)C(O)=C1
ReTe$_{7}$O$_{7}$F$_{32}$,0.5589999999999999,eV/atom,
LiFeP,0.0,eV/atom,
BaP$_{2}$,0.5568,eV/atom,
Tl$_{4}$PbI$_{6}$,2.3270000000000004,eV/atom,
Na$_{2}$H$_{4}$Pd,2.2472000000000003,eV/atom,
LaIn$_{5}$Ir,0.0,eV/atom,
La$_{5}$V$_{3}$S$_{6}$O$_{7}$,1.0339,eV/atom,
Zr$_{6}$Al$_{7}$Cu$_{16}$H$_{9}$,0.0,eV/atom,
Pu(Mo$_{3}$Se$_{4}$)$_{2}$,0.0,eV/atom,
LuCo$_{3}$B$_{2}$,0.0,eV/atom,
ReH$_{12}$C$_{2}$S$_{2}$N$_{4}$Cl$_{5}$O$_{3}$,0.6434,eV/atom,
Cu$_{4}$Bi$_{4}$S$_{9}$,0.6524999999999999,eV/atom,
InAgO$_{2}$,0.2413000000000003,eV/atom,
UGa$_{5}$Rh,0.07040000000000024,eV/atom,
Ba$_{9}$(RhO$_{3}$)$_{8}$,0.011099999999999888,eV/atom,
SbSNF$_{6}$,3.3272,eV/atom,
ZrAlCo$_{2}$,0.0,eV/atom,
Cs$_{2}$Re$_{2}$Se$_{5}$,0.7001999999999997,eV/atom,
V$_{3}$B$_{2}$,0.0,eV/atom,
PdSe,0.0,eV/atom,
SrLiFeF$_{6}$,4.1239,eV/atom,
MnAu$_{4}$,0.0,eV/atom,
K$_{2}$ZnSiO$_{4}$,3.4888999999999997,eV/atom,
CsAg(NO$_{3}$)$_{2}$,2.6683,eV/atom,
Li$_{2}$MnSiO$_{4}$,3.0698999999999996,eV/atom,
MgSiO$_{3}$,4.6751000000000005,eV/atom,
Pr(CuSn)$_{2}$,0.0,eV/atom,
Nd$_{3}$Sb$_{5}$Pd$_{6}$,0.0,eV/atom,
NaLa(SeO$_{3}$)$_{2}$,3.5572999999999997,eV/atom,
Hf$_{6}$Ga$_{2}$Fe,0.0,eV/atom,
Na$_{3}$PaF$_{8}$,4.2399,eV/atom,
CrHgF$_{6}$,1.417,eV/atom,
CeSn$_{3}$,0.0,eV/atom,
KMn$_{2}$Zn$_{3}$(Si$_{2}$O$_{5}$)$_{6}$,0.0,eV/atom,
Nb$_{4}$Ag$_{2}$O$_{11}$,2.3722999999999996,eV/atom,
MgP$_{4}$(Cl$_{5}$O$_{3}$)$_{2}$,3.5985,eV/atom,
V$_{3}$CdO$_{7}$,2.2417,eV/atom,
CdI$_{2}$,2.3710999999999998,eV/atom,
LiBeAs,1.0077000000000003,eV/atom,
Na$_{2}$H$_{4}$PtC$_{4}$Br$_{2}$(N$_{2}$O)$_{2}$,1.7953000000000001,eV/atom,
CaCuP$_{2}$O$_{7}$,0.6021000000000001,eV/atom,
Mg$_{2}$B$_{2}$O$_{5}$,5.1536,eV/atom,
Al$_{2}$H$_{12}$(SeO$_{5}$)$_{3}$,4.7445,eV/atom,
Y(CuGe)$_{2}$,0.0,eV/atom,
Ba(PRh)$_{2}$,0,eV/atom,
Sr$_{2}$NiN$_{2}$,0.0,eV/atom,
SrCu$_{9}$Ge$_{4}$,0,eV/atom,
Ta$_{2}$InC,0.0,eV/atom,
YB$_{4}$,0.0,eV/atom,
SF$_{6}$,5.8901,eV/atom,
SrIn$_{2}$Pd,0.0,eV/atom,
NaCuO$_{2}$,0.4914000000000003,eV/atom,
Ba$_{2}$Si$_{3}$Ag,0.05239999999999956,eV/atom,
LuMoClO$_{4}$,2.8844,eV/atom,
TbCrO$_{3}$,2.4854000000000003,eV/atom,
NaAgO,1.2780999999999998,eV/atom,
CsPb$_{2}$Cl$_{5}$,3.8183,eV/atom,
K$_{3}$In$_{2}$As$_{3}$,0.5968999999999998,eV/atom,
UTeO,0.0,eV/atom,
Cs$_{3}$Yb(SO$_{4}$)$_{3}$,0.0,eV/atom,
Ta$_{2}$O$_{5}$,1.2267000000000001,eV/atom,
HfPbO$_{3}$,2.7902000000000005,eV/atom,
MnSbSe$_{2}$Br,0.18320000000000025,eV/atom,
BaTi(SiO$_{3}$)$_{3}$,3.0637000000000003,eV/atom,
Rb$_{6}$Te$_{3}$P$_{6}$(H$_{13}$O$_{20}$)$_{2}$,3.47,eV/atom,
MnP$_{4}$H$_{16}$(NO$_{8}$)$_{2}$,4.0598,eV/atom,
Tl(FeSe)$_{2}$,0.0,eV/atom,
Li$_{2}$ZnCl$_{4}$,4.6751000000000005,eV/atom,
Sr$_{3}$Y$_{2}$(BO$_{3}$)$_{4}$,4.4415000000000004,eV/atom,
NaClO$_{2}$,2.409,eV/atom,
LaTm(Ge$_{2}$Ir)$_{2}$,0.0,eV/atom,
Mn$_{2}$Fe$_{3}$(SiO$_{4}$)$_{3}$,0.0,eV/atom,
ErB$_{2}$Rh$_{3}$,0.0,eV/atom,
Y(PO$_{3}$)$_{3}$,5.8610999999999995,eV/atom,
Co$_{3}$B$_{7}$IO$_{13}$,2.2508999999999997,eV/atom,
KZrSnF$_{7}$,4.0133,eV/atom,
CeSiNi$_{4}$,0.0,eV/atom,
Zn(GaSe$_{2}$)$_{2}$,1.3974999999999997,eV/atom,[Zn+2].O=C([O-])C1=CC(O)=C(O)C(O)=C1[Se][Se][Se][Se]C2=C(O)C(O)=C(O)C=C2C(=O)[O-]
Li$_{3}$GaSiO$_{5}$,3.6429,eV/atom,
La$_{4}$Cu$_{3}$MoO$_{12}$,0.22529999999999983,eV/atom,
TlGaSe$_{2}$,1.2542999999999997,eV/atom,
Cu$_{2}$P$_{2}$O$_{7}$,0.0,eV/atom,
CdSe$_{2}$,0.7103000000000002,eV/atom,
ZrN$_{6}$O$_{17}$,1.568,eV/atom,
PuClO,0.0,eV/atom,
Cd$_{4}$P$_{2}$Br$_{3}$,1.3981000000000003,eV/atom,
Si$_{2}$Os,0.652000000000001,eV/atom,
SmPt$_{3}$,0.0,eV/atom,
K$_{2}$HgH$_{2}$Cl$_{4}$O,2.7153,eV/atom,
Sn$_{2}$Au,0.0,eV/atom,
CsCu$_{4}$S$_{3}$,0.0,eV/atom,
YCu$_{5}$,0.0,eV/atom,
Li$_{6}$ZnO$_{4}$,3.5116,eV/atom,
BaVO$_{3}$,0,eV/atom,
NiCO$_{3}$,3.4031000000000002,eV/atom,
TiH$_{2}$SO$_{6}$,2.5139,eV/atom,[O-2].[Ti+4].O=S(=O)([O-])[O-].O
Li$_{3}$LaBi$_{2}$,0.1578999999999997,eV/atom,
Ti$_{2}$Cu$_{9}$(B$_{3}$O$_{11}$)$_{2}$,0.11689999999999978,eV/atom,
ZnBi$_{2}$B$_{2}$O$_{7}$,2.5197999999999996,eV/atom,
K$_{3}$V(SO$_{5}$)$_{2}$,3.4426,eV/atom,
Y$_{3}$Si$_{3}$Rh$_{2}$,0.0,eV/atom,
SrCrP$_{2}$O$_{7}$,2.9628000000000005,eV/atom,
MgNiH,0.0,eV/atom,
AsS,2.0317,eV/atom,
Yb(ZnAs)$_{2}$,0.4163000000000001,eV/atom,
FeH$_{6}$(CO$_{3}$)$_{2}$,3.3193,eV/atom,[Fe+2].O=C[O-].O=C[O-].O.O
TlCuAsO$_{4}$,0.008000000000000007,eV/atom,
Tl$_{2}$HgGeTe$_{4}$,0.08859999999999957,eV/atom,
DyMnO$_{3}$,0.41339999999999977,eV/atom,
TmCuGe,0.0,eV/atom,
Sc$_{6}$Ni$_{16}$Ge$_{7}$,0.0,eV/atom,
Er(SiPt)$_{2}$,0.0,eV/atom,
Ca$_{2}$FeCuSO$_{3}$,0.6625000000000005,eV/atom,
MnWN$_{2}$,0.0,eV/atom,
Lu(ClO$_{4}$)$_{3}$,5.7305,eV/atom,
Rb$_{3}$IO,0.6342999999999999,eV/atom,
TbTl$_{3}$,0.0,eV/atom,
Ba$_{5}$P$_{3}$ClO$_{12}$,5.0449,eV/atom,
Rb$_{2}$V(PO$_{4}$)$_{2}$,2.9534,eV/atom,
GdMnB$_{4}$,0.0,eV/atom,
Na$_{2}$Cu$_{2}$Si$_{4}$O$_{11}$,0.2544000000000002,eV/atom,
CsCoH$_{18}$N$_{6}$(ClO$_{2}$)$_{4}$,0.0,eV/atom,
RbHgF$_{3}$,0.6523999999999999,eV/atom,
Te$_{2}$MoO$_{7}$,2.8149999999999995,eV/atom,
Pr(SiAu)$_{2}$,0.0,eV/atom,
La$_{2}$(MoO$_{4}$)$_{3}$,3.6508000000000003,eV/atom,
Nb$_{4}$Co$_{4}$Si$_{7}$,0.0,eV/atom,
Ca$_{2}$GePt$_{2}$,0.0,eV/atom,
TiHg$_{6}$As$_{4}$Br$_{7}$,0.0979000000000001,eV/atom,
Ta$_{3}$SnS$_{6}$,0.0,eV/atom,
YGe$_{2}$Pt,0.0,eV/atom,
Th(GeAu)$_{2}$,0,eV/atom,
ReTeSCl$_{4}$,2.3274,eV/atom,
ScFeGe,0.0,eV/atom,
NaNbO$_{2}$,1.3781999999999996,eV/atom,
Tl$_{5}$Se$_{2}$Br,0.38560000000000016,eV/atom,
Na$_{2}$Zn(SO$_{4}$)$_{2}$,4.4697,eV/atom,
Cr$_{2}$WO$_{6}$,1.4806,eV/atom,
Ca$_{3}$Mg$_{3}$(PO$_{4}$)$_{4}$,5.0058,eV/atom,
Tm$_{2}$S$_{2}$O,2.6946999999999997,eV/atom,
SmSbPd,0.0,eV/atom,
Mo(CO)$_{6}$,3.1536,eV/atom,O=C=[Mo](=C=O)(=C=O)(=C=O)(=C=O)=C=O
NbCrN,0.0,eV/atom,
Zn$_{2}$SiO$_{4}$,2.2529000000000003,eV/atom,
Rb$_{4}$Zr$_{3}$Se$_{14}$,1.4609,eV/atom,
CsMgF$_{3}$,6.7028,eV/atom,
ScNiSb,0.2679999999999998,eV/atom,
KTbS$_{2}$,2.3136,eV/atom,
CuPS$_{3}$,1.2100000000000004,eV/atom,
DyMn$_{12}$,0.0,eV/atom,
YbWClO$_{4}$,1.9504000000000001,eV/atom,
HoMnGe,0.019999999999999574,eV/atom,
K(SnAu)$_{3}$,0.0,eV/atom,
TbCo$_{3}$,0.0,eV/atom,
Cs$_{3}$P$_{7}$,2.3466000000000005,eV/atom,
Ca$_{2}$Sb$_{2}$S$_{5}$,1.4826000000000001,eV/atom,
As$_{2}$H$_{3}$CF$_{9}$,4.3411,eV/atom,
LiB$_{3}$P(HO$_{3}$)$_{3}$,5.988,eV/atom,
HoIn$_{5}$Co,0.0,eV/atom,
LiIn$_{2}$Rh,0.0,eV/atom,
V$_{2}$Cu$_{2}$O$_{7}$,0.026000000000000023,eV/atom,
Sb$_{2}$MoSe,0.0,eV/atom,
Sr$_{2}$CuWO$_{6}$,0.0,eV/atom,
K$_{2}$U$_{3}$(IO$_{5}$)$_{4}$,1.8921000000000001,eV/atom,
LuCoGe,0.0,eV/atom,
H$_{8}$S(NO$_{2}$)$_{2}$,5.072699999999999,eV/atom,
PrFe$_{4}$(CuO$_{4}$)$_{3}$,0.0,eV/atom,
H$_{6}$S(NO$_{2}$)$_{2}$,5.2248,eV/atom,
TmB$_{4}$Rh,0.0,eV/atom,
Na$_{6}$MnTe$_{4}$,1.3409,eV/atom,
CuSi$_{2}$H$_{18}$C$_{9}$O$_{2}$,2.955,eV/atom,
Sr(CdP)$_{2}$,0.7113999999999998,eV/atom,
UB$_{2}$Rh$_{2}$C,0.0,eV/atom,
DyCuPb,0.0,eV/atom,
Ce$_{2}$Mg$_{17}$,0.0,eV/atom,
MnGaCo$_{2}$,0.0,eV/atom,
Na$_{5}$Tb(WO$_{4}$)$_{4}$,4.804,eV/atom,
LiHO,4.0057,eV/atom,
ThTaN$_{3}$,0.0,eV/atom,
Hf$_{5}$CuPb$_{3}$,0.0,eV/atom,
CuW$_{3}$Cl$_{7}$,2.3724000000000003,eV/atom,
ZrGa,0.0,eV/atom,
ErInPt$_{4}$,0.0,eV/atom,
Ni$_{3}$Mo,0.0,eV/atom,
NaYbS$_{2}$,0.0,eV/atom,
YbNi$_{4}$B,0.0,eV/atom,
Sr$_{2}$ZrVO$_{6}$,0.0,eV/atom,
KClO$_{3}$,5.5613,eV/atom,
RbNa$_{11}$(WN$_{3}$)$_{4}$,2.1755999999999998,eV/atom,
FeH$_{14}$C$_{4}$NOF$_{4}$,3.8232999999999997,eV/atom,
Li$_{8}$SnO$_{6}$,3.8134000000000006,eV/atom,
FeHO$_{2}$,1.9833999999999996,eV/atom,
KLi$_{7}$(H$_{2}$N)$_{8}$,2.6055,eV/atom,
Rb$_{7}$NbAs$_{4}$,0.7678999999999998,eV/atom,
FeBiO$_{3}$,1.5185000000000004,eV/atom,
Li$_{2}$SeO$_{4}$,0.010499999999999954,eV/atom,
K$_{2}$Ce(NO$_{3}$)$_{6}$,1.4733,eV/atom,
Sr(MgSb)$_{2}$,0.9813000000000001,eV/atom,
U(ClO)$_{2}$,1.8584,eV/atom,
HfBrN,1.9204999999999997,eV/atom,
Na$_{3}$MgC$_{2}$ClO$_{6}$,3.8608000000000002,eV/atom,
K$_{6}$Co$_{2}$O$_{7}$,1.0823,eV/atom,
CaAlSiO$_{4}$F,5.2058,eV/atom,
SmCrO$_{3}$,2.4031,eV/atom,
Se$_{2}$S(NCl)$_{2}$,1.6977,eV/atom,
BaYb$_{2}$CoO$_{5}$,0.08210000000000006,eV/atom,
GdMg,0.0,eV/atom,
Pr$_{2}$InNi$_{2}$,0.0,eV/atom,
KSmF$_{4}$,7.1568,eV/atom,
Cs$_{2}$KTiF$_{6}$,0.0,eV/atom,
YbNi$_{2}$B$_{2}$C,0,eV/atom,
Ho$_{4}$Mo$_{4}$O$_{11}$,0.49520000000000053,eV/atom,
Ba$_{2}$ZnSb$_{2}$,0.4421999999999997,eV/atom,
YGaNi,0.0,eV/atom,
Ce$_{3}$MgAlS$_{7}$,0.044899999999999274,eV/atom,
Na$_{2}$Zn$_{2}$Si$_{2}$O$_{7}$,3.323,eV/atom,
Sr$_{2}$UO$_{4}$,0.0,eV/atom,
KTe$_{2}$F$_{9}$,4.5077,eV/atom,
K$_{2}$CuSbS$_{3}$,1.1907,eV/atom,
Zr$_{2}$Cl$_{5}$,0.0,eV/atom,
Mn$_{15}$Si$_{26}$,0.009700000000000486,eV/atom,
InAgSe$_{2}$,0.0,eV/atom,
Sc$_{2}$GeO$_{5}$,4.1263,eV/atom,
Y$_{6}$Mn$_{23}$,0.008799999999999919,eV/atom,
SrNb$_{5}$Se$_{8}$,0.0,eV/atom,
BaIO$_{5}$,0.0,eV/atom,[I-].[Ba+2].[OH-].O.O.O.O
CsAgC$_{2}$,2.6144,eV/atom,
Ce(Mo$_{3}$Se$_{4}$)$_{2}$,0.06329999999999991,eV/atom,
Sr$_{5}$(Ga$_{3}$O$_{7}$)$_{2}$,2.9142,eV/atom,
UO$_{3}$,0.46579999999999977,eV/atom,
Dy$_{2}$C$_{3}$,0.0,eV/atom,
BN,3.2495000000000003,eV/atom,
Si$_{5}$Pt$_{6}$,0.0,eV/atom,
C$_{2}$SeN$_{2}$,3.336,eV/atom,N#C[Se]C#N
TlRe,0.0,eV/atom,
Ca(Al$_{4}$Co)$_{2}$,0.0,eV/atom,
PrAl$_{5}$Ni$_{2}$,0.0,eV/atom,
Zr$_{6}$CoAs$_{2}$,0.0,eV/atom,
Te$_{2}$W,0.9395999999999995,eV/atom,
KCoAu$_{3}$(CN)$_{6}$,0.0,eV/atom,
Hf$_{5}$(In$_{2}$Rh)$_{2}$,0.0,eV/atom,
BaN$_{3}$Cl,4.0774,eV/atom,[Cl-].[Ba+2].[N-]=[N+]=[N-].[N-]=[N+]=[N-].[N-]=[N+]=[N-]
Y$_{3}$Ga$_{9}$Pt$_{2}$,0.0,eV/atom,
Ti$_{2}$P,0.0,eV/atom,
Gd(SiRu)$_{2}$,0.0,eV/atom,
LiMo$_{2}$P$_{2}$O$_{11}$,1.0137999999999998,eV/atom,
LaSO,1.522899999999999,eV/atom,
Ta$_{2}$GaC,0.0,eV/atom,
Ba$_{3}$Al$_{3}$Ga$_{2}$,0.0,eV/atom,
BaMgSi,0.1245999999999996,eV/atom,
Tl$_{4}$GeS$_{4}$,1.9009999999999998,eV/atom,
Rb$_{3}$Tm$_{2}$Cu$_{4}$Br$_{13}$,1.9138000000000002,eV/atom,
Na$_{2}$Si$_{3}$O$_{7}$,4.3033,eV/atom,
Na$_{4}$CO$_{4}$,2.4364,eV/atom,
HgSb$_{4}$C$_{2}$(OF$_{11}$)$_{2}$,4.298,eV/atom,
Cs$_{2}$Sb$_{2}$Pt,0.7604000000000002,eV/atom,
Sr(GaAu)$_{2}$,0.0,eV/atom,
Si$_{2}$Bi$_{14}$RhI$_{12}$,0.0,eV/atom,
BaS$_{2}$,1.5760999999999998,eV/atom,
Pr$_{3}$SiAgS$_{7}$,1.7612000000000005,eV/atom,
LuGaNi,0.0,eV/atom,
CdI$_{2}$,2.3499,eV/atom,
MoH$_{6}$NO$_{3}$F$_{2}$,2.7803,eV/atom,
GaNi,0.0,eV/atom,
NdSBr,2.6374999999999993,eV/atom,
K$_{3}$GeTe$_{3}$,1.0607000000000002,eV/atom,
In(Mo$_{3}$Se$_{4}$)$_{2}$,0.005399999999999849,eV/atom,
ScSi$_{2}$,0.0,eV/atom,
Na$_{3}$AlH$_{6}$,2.8136,eV/atom,
K$_{5}$Te$_{3}$,0.17159999999999997,eV/atom,
Pr$_{2}$NiO$_{4}$,1.6753,eV/atom,
YFeCo$_{3}$B,0.0,eV/atom,
Ba$_{2}$MnReO$_{6}$,0.0,eV/atom,
CsV$_{2}$O$_{5}$,2.0615,eV/atom,
As$_{2}$Pb$_{3}$O$_{8}$,3.3060000000000005,eV/atom,
Gd$_{2}$Si$_{2}$O$_{7}$,3.2104,eV/atom,
LaSb$_{2}$Pd,0.0,eV/atom,
Sn$_{4}$Pd,0.0,eV/atom,
GaTeO$_{3}$F,3.7078,eV/atom,
Na$_{3}$AlH$_{6}$,2.4589,eV/atom,
CaNiN,0.0,eV/atom,
Mg$_{2}$SiO$_{4}$,3.5073000000000003,eV/atom,
BaNiF$_{6}$,0.4727,eV/atom,
Rb$_{2}$CoCl$_{4}$,0.7291000000000001,eV/atom,
K$_{2}$Hg$_{3}$C$_{8}$(NO)$_{8}$,3.3064,eV/atom,
Eu$_{4}$Au$_{2}$O$_{9}$,0.0013999999999998458,eV/atom,
ZrCuHg$_{2}$,0.0,eV/atom,
HgO,0.0,eV/atom,
KSmGeSe$_{4}$,1.6287,eV/atom,
YIn$_{2}$Ni$_{9}$,0.0,eV/atom,
BeF$_{2}$,8.085,eV/atom,
NaB(SO$_{4}$)$_{2}$,6.0208,eV/atom,[B+3].[Na+].O=S(=O)([O-])OS(=O)(=O)[O-].O=S(=O)([O-])OS(=O)(=O)[O-]
SiB$_{3}$,1.4080000000000004,eV/atom,
EuCuTeF,0.6179000000000006,eV/atom,
Ba$_{2}$CaOsO$_{6}$,0.0,eV/atom,
MgTe$_{2}$O$_{5}$,2.3736000000000006,eV/atom,
Al$_{2}$Te$_{3}$,1.8377999999999997,eV/atom,
Th$_{2}$Co$_{7}$,0.0,eV/atom,
NaZnSb,0.0,eV/atom,
HoPt$_{3}$,0.0,eV/atom,
ZnH$_{8}$C$_{2}$I$_{2}$(N$_{2}$O)$_{2}$,1.8638,eV/atom,
MnAu,0.0,eV/atom,
CsRbAs,0.0,eV/atom,
Ca$_{4}$P$_{6}$O$_{19}$,5.361800000000001,eV/atom,
KNaSi$_{2}$O$_{5}$,4.4523,eV/atom,
SmMg$_{2}$Cu$_{9}$,0.0,eV/atom,
VFeP,0.0,eV/atom,
Ce(Al$_{10}$Co)$_{2}$,0.0,eV/atom,
OsO$_{2}$F$_{3}$,0.5722,eV/atom,
Eu$_{5}$As$_{4}$,0.0,eV/atom,
FeP$_{4}$,0.8292999999999999,eV/atom,
Ca$_{3}$Fe$_{2}$(SeO$_{3}$)$_{6}$,2.3710999999999998,eV/atom,
TbSi$_{3}$Rh$_{5}$,0.0,eV/atom,
Y$_{8}$Co$_{5}$,0.0,eV/atom,
Cr$_{2}$CuTe$_{4}$,0.0,eV/atom,
CsTm$_{2}$Cu$_{3}$Se$_{5}$,1.2472999999999996,eV/atom,
Ca$_{3}$UO$_{6}$,2.2602,eV/atom,
Ba$_{7}$Ga$_{4}$Sb$_{9}$,0.18219999999999992,eV/atom,
SiO$_{2}$,5.5366,eV/atom,
RbFe$_{2}$S$_{3}$,0.0,eV/atom,
Th$_{2}$SN$_{2}$,1.4196999999999997,eV/atom,
LaRh,0.08119999999999994,eV/atom,
CdH$_{4}$(BrO$_{4}$)$_{2}$,3.9715,eV/atom,
Ti$_{6}$O$_{11}$,0.0,eV/atom,
Os$_{5}$(CO)$_{16}$,1.9933,eV/atom,
Rb$_{2}$S,1.8962,eV/atom,
BaCo$_{2}$(PO$_{4}$)$_{2}$,2.8964999999999996,eV/atom,
LiMg$_{10}$AlH$_{24}$,3.5822,eV/atom,
La$_{5}$(Mo$_{2}$O$_{7}$)$_{3}$,1.0219000000000005,eV/atom,
H$_{5}$IO$_{6}$,2.3706,eV/atom,
Hf$_{2}$NiP,0.0,eV/atom,
Y$_{3}$PbC,0.0,eV/atom,
RbU$_{2}$SbS$_{8}$,0.0,eV/atom,
Sr$_{2}$ScGaO$_{5}$,2.7627999999999995,eV/atom,
Dy(SiNi)$_{2}$,0.0,eV/atom,
CaZnP$_{2}$H$_{5}$O$_{8}$,0.19390000000000007,eV/atom,
Rb$_{2}$CrF$_{6}$,0.0,eV/atom,
GeO$_{2}$,3.2500999999999998,eV/atom,
SmGa$_{2}$Ni,0.0,eV/atom,
K$_{2}$SnHgSe$_{4}$,1.4738,eV/atom,
K$_{6}$Na$_{2}$MnH$_{24}$(WO$_{6}$)$_{6}$,2.1123000000000003,eV/atom,
LaBiS$_{2}$O,1.2412999999999998,eV/atom,
TiZn(BiO$_{3}$)$_{2}$,1.6179999999999994,eV/atom,
NaTi$_{8}$O$_{13}$,0.0,eV/atom,
HoIn$_{3}$,0.0,eV/atom,
Mn$_{2}$FeWO$_{6}$,0.0,eV/atom,
SmMg$_{3}$,0.0,eV/atom,
AgN$_{3}$,1.5714,eV/atom,
TiFe$_{2}$O$_{5}$,1.8775,eV/atom,
LuAl,0.0,eV/atom,
BaVClO$_{3}$,2.3881,eV/atom,
Ca$_{2}$B$_{6}$O$_{11}$,5.639,eV/atom,
NaCo(CO)$_{4}$,3.7329,eV/atom,
Nd$_{6}$Fe$_{13}$Si,0,eV/atom,
InHO$_{2}$,1.8374999999999995,eV/atom,
Ag$_{2}$Hg$_{7}$(P$_{4}$I$_{3}$)$_{2}$,0.7439,eV/atom,
Tb$_{2}$Al$_{4}$NiGe$_{2}$,0.0,eV/atom,
TiCr$_{2}$,0.0,eV/atom,
K$_{6}$BiH$_{3}$(Cl$_{2}$F)$_{4}$,4.1698,eV/atom,
Nb$_{4}$Zn$_{2}$C,0.0,eV/atom,
RbSb$_{2}$,0.2653000000000003,eV/atom,
Pr$_{2}$BiN,0.0,eV/atom,
BaNa$_{2}$V$_{2}$CuO$_{8}$,0.6910000000000001,eV/atom,
TiCo$_{3}$,0.0,eV/atom,
Ba$_{8}$Sb$_{4}$H$_{2}$O,0.7384,eV/atom,
Li$_{4}$Al$_{3}$Si$_{3}$ClO$_{12}$,5.2612000000000005,eV/atom,
GdNi(BO$_{2}$)$_{5}$,3.1216,eV/atom,
La(LuS$_{2}$)$_{3}$,1.0595999999999997,eV/atom,
SbBrF$_{8}$,2.6902,eV/atom,F[Br+]F.F[Sb-](F)(F)(F)(F)F
Sb$_{2}$(SO$_{4}$)$_{3}$,4.016299999999999,eV/atom,
Co(PtO$_{2}$)$_{3}$,0.3764000000000003,eV/atom,
Eu(Ni$_{2}$B)$_{6}$,0.0,eV/atom,
Lu$_{5}$Pb$_{3}$,0.0,eV/atom,
Zr(Al$_{2}$Fe)$_{4}$,0.0,eV/atom,
Ca$_{2}$YAs(WO$_{6}$)$_{2}$,4.0029,eV/atom,
PbS,1.4659,eV/atom,
CuMo$_{3}$Br$_{7}$,1.6912,eV/atom,
Zn$_{3}$CrTe$_{4}$,0.0,eV/atom,
TbO$_{3}$,0.18839999999999996,eV/atom,
UBrN,0.0,eV/atom,
VCuAgO$_{4}$,0.0,eV/atom,
SbAs$_{3}$(S$_{2}$F$_{3}$)$_{2}$,2.3306,eV/atom,
KLaGeSe$_{4}$,1.6108999999999998,eV/atom,
BaFe$_{2}$Se$_{3}$,0.0,eV/atom,
Dy$_{2}$Si$_{2}$O$_{7}$,4.6278,eV/atom,
Cs$_{3}$Cu$_{2}$I$_{5}$,2.5112,eV/atom,
FeBiSbS$_{4}$,0.16389999999999993,eV/atom,
MgAlPO$_{5}$,5.042300000000001,eV/atom,
Dy$_{4}$Mo$_{4}$O$_{11}$,0.4894999999999996,eV/atom,
CaZr$_{4}$(PO$_{4}$)$_{6}$,4.1838,eV/atom,
CsLu$_{2}$Cu$_{3}$Se$_{5}$,1.2562000000000002,eV/atom,
CeSiIr,0.0,eV/atom,
Pr$_{5}$Bi$_{3}$,0.0,eV/atom,
SrTa$_{2}$Bi$_{2}$O$_{9}$,2.0000000000000004,eV/atom,
Cd$_{4}$P$_{2}$I$_{3}$,1.379,eV/atom,
Gd$_{2}$SO$_{2}$,2.0389999999999997,eV/atom,
NdH$_{32}$C$_{8}$N$_{4}$Cl$_{7}$,4.7293,eV/atom,
FeSeBr$_{7}$,0.9852,eV/atom,
SCl$_{2}$,2.0564999999999998,eV/atom,ClSCl
CsBSe$_{3}$,1.7009999999999998,eV/atom,
Y$_{3}$GaC,0.0,eV/atom,
Sm$_{3}$ReO$_{8}$,1.7634000000000003,eV/atom,
K$_{3}$Nd(PS$_{4}$)$_{2}$,2.4434,eV/atom,
Pr$_{4}$Ge$_{3}$,0.0,eV/atom,
RbLi$_{2}$Be$_{2}$F$_{7}$,7.5146,eV/atom,
NaAlGeO$_{4}$,3.7388000000000003,eV/atom,
Ce$_{2}$CdPt$_{2}$,0.0,eV/atom,
K$_{3}$Lu(SiO$_{3}$)$_{3}$,3.4819,eV/atom,
RbEu(PO$_{3}$)$_{4}$,0.0,eV/atom,[Rb+].[Eu+3].O=P([O-])([O-])OP(=O)([O-])OP(=O)([O-])OP(=O)(O)O
SrCdGe,0.04969999999999963,eV/atom,
Zr$_{6}$BI$_{12}$,0.0,eV/atom,
SrMoO$_{3}$,0.0,eV/atom,
ThSi$_{3}$Rh,0.0,eV/atom,
Ba$_{3}$NaNbO$_{6}$,3.0766,eV/atom,
CaTi$_{2}$O$_{4}$,0.0,eV/atom,
CsRe(Cl$_{2}$O)$_{2}$,1.4875,eV/atom,
NaRuO$_{2}$,0.005300000000000082,eV/atom,
Al$_{2}$W,0.0,eV/atom,
K$_{2}$Mo$_{2}$P$_{2}$O$_{11}$,2.5305,eV/atom,
Lu(CuSi)$_{2}$,0.0,eV/atom,
Ho(NiGe)$_{2}$,0.0,eV/atom,
Ce$_{2}$HfS$_{5}$,0.0,eV/atom,
VBrO,1.4546000000000001,eV/atom,
CaSiO$_{3}$,3.7120000000000006,eV/atom,
LaS$_{2}$,0.0,eV/atom,
CaMgAsO$_{4}$F,3.7523,eV/atom,
YbMn$_{4}$(CuO$_{4}$)$_{3}$,0.0,eV/atom,
TbCl$_{3}$,3.7957,eV/atom,
ErGePt,0.0,eV/atom,
La$_{2}$SiS$_{5}$,2.3415,eV/atom,
Ce(Al$_{2}$Cr)$_{4}$,0.0,eV/atom,
Rb$_{2}$PdSe$_{2}$,0.889,eV/atom,
Sr$_{2}$FeMoO$_{6}$,0.0,eV/atom,
P$_{4}$SeO$_{6}$,3.1346,eV/atom,
CsLi$_{2}$Cl$_{3}$,5.2393,eV/atom,
H$_{12}$W$_{3}$C$_{4}$NCl$_{9}$,0.09089999999999998,eV/atom,
Fe$_{4}$P$_{2}$O$_{9}$,2.8438000000000003,eV/atom,
MnNF$_{3}$,0.0,eV/atom,
K$_{2}$MgB$_{12}$(H$_{2}$O$_{3}$)$_{10}$,5.5415,eV/atom,
TiTl$_{2}$O$_{3}$,2.0959000000000003,eV/atom,
Mn$_{3}$SiIr,0.0,eV/atom,
Pr$_{5}$As$_{2}$ClO$_{10}$,3.2721999999999998,eV/atom,
Ba$_{2}$TaBiO$_{6}$,2.6759000000000004,eV/atom,
KGaSb$_{2}$,0.9419999999999997,eV/atom,
CaSn,0.0,eV/atom,
CoSe$_{2}$,0.0,eV/atom,
Ta$_{3}$Ge,0.0,eV/atom,
Np$_{2}$InRh$_{2}$,0.0,eV/atom,
Ce$_{3}$(CuGe)$_{4}$,9.999999999976694E-5,eV/atom,
FeBr$_{3}$,0.0,eV/atom,
Na$_{3}$NbO$_{4}$,3.7688999999999995,eV/atom,
LiAlPdF$_{6}$,1.0557,eV/atom,
Nb$_{3}$TlVCl$_{11}$,0.0,eV/atom,
Cs$_{2}$Hg$_{3}$Se$_{4}$,1.188,eV/atom,
Ho$_{3}$ReB$_{7}$,0.0,eV/atom,
C,4.4277,eV/atom,[C]
Ba$_{2}$GdGaTe$_{5}$,0.6713000000000005,eV/atom,
GdAlCu,0.0,eV/atom,
Cs$_{2}$Sr$_{2}$Li$_{3}$B$_{3}$(PO$_{4}$)$_{6}$,5.6029,eV/atom,
Gd$_{2}$Si$_{2}$O$_{7}$,2.8750999999999998,eV/atom,
YbGeIr,0.0,eV/atom,
CsI$_{4}$,1.7836,eV/atom,
DyRh$_{3}$C,0.0,eV/atom,
In$_{2}$(WO$_{4}$)$_{3}$,4.2459,eV/atom,
ZrTe$_{2}$Br$_{5}$,1.1092,eV/atom,
InRu$_{3}$,0.0,eV/atom,
Eu(Ni$_{5}$P$_{3}$)$_{2}$,0.0,eV/atom,
Sb$_{2}$POF$_{13}$,4.0801,eV/atom,
CaSe,3.1581,eV/atom,
Er$_{3}$AlN,0.0,eV/atom,
CeHg$_{2}$,0.0,eV/atom,
U$_{3}$Cu$_{2}$Se$_{7}$,0.0,eV/atom,
ZrNiP,0.0,eV/atom,
DyAl$_{2}$,0.0,eV/atom,
SrNiGe$_{2}$,0.0,eV/atom,
NbIr,0.0,eV/atom,
LiNbO$_{3}$,3.3358000000000003,eV/atom,
Ba$_{2}$DyNbO$_{6}$,2.8514,eV/atom,
DyMnSi,0.0,eV/atom,
Sm(SiAg)$_{2}$,0.0,eV/atom,