formula,Property band_gap,Property band_gap units,Property SMILES
K$_{2}$FeF$_{5}$,3.6824000000000003,eV/atom,
NaZnSiHO$_{4}$,3.4269,eV/atom,
Rb$_{6}$Br$_{4}$O,1.5308000000000002,eV/atom,
Te$_{2}$PdBr$_{6}$,1.318,eV/atom,
ErH$_{9}$C$_{5}$(NO$_{4}$)$_{2}$,4.4956,eV/atom,
Nb(SeCl)$_{2}$,0.984,eV/atom,
K$_{2}$CoCl$_{4}$,0.7942,eV/atom,
Na$_{7}$SnS$_{3}$(O$_{4}$F)$_{3}$,4.990600000000001,eV/atom,
Ge$_{3}$Os$_{2}$,0.7418000000000005,eV/atom,
GePbS$_{3}$,1.7578999999999998,eV/atom,
Nd$_{2}$Ni$_{5}$B$_{4}$,0.0,eV/atom,
TaAs$_{2}$,0.013399999999999856,eV/atom,
K$_{2}$MnF$_{6}$,3.1934,eV/atom,
Li$_{2}$UN$_{2}$,0.0,eV/atom,
BaGe$_{2}$O$_{5}$,1.8132000000000001,eV/atom,
HoCuP$_{2}$,0.0,eV/atom,
BaAl$_{2}$(GeO$_{4}$)$_{2}$,3.936,eV/atom,
BaAu$_{5}$,0.0,eV/atom,
La$_{5}$Bi$_{3}$Br,0.0,eV/atom,
RbFeF$_{4}$,2.8216,eV/atom,
LaZnPO,0.6563000000000008,eV/atom,
MnTe$_{2}$O$_{5}$,2.3706,eV/atom,
CaH$_{20}$C$_{4}$S$_{4}$(NO$_{6}$)$_{2}$,5.6987,eV/atom,
NdSiPt,0.0,eV/atom,
Yb$_{2}$ZnSe$_{4}$,0.0,eV/atom,
Ni$_{3}$Se$_{4}$(ClO$_{5}$)$_{2}$,3.2925999999999993,eV/atom,
YFe$_{3}$,0.0,eV/atom,
PbClO,0.040000000000000036,eV/atom,
Sb$_{2}$Au,0.0,eV/atom,
BaTe$_{3}$,0.8122999999999996,eV/atom,
La(AsRh)$_{2}$,0.0,eV/atom,
LiMnAsO$_{4}$,1.6879000000000004,eV/atom,
Li$_{2}$AgSn,0.0,eV/atom,
Hg$_{3}$(SCl)$_{2}$,1.932,eV/atom,
ZrTi$_{2}$O,0.0,eV/atom,
NaIrO$_{3}$,0.0,eV/atom,
GdCd$_{2}$,0.0,eV/atom,
Lu$_{2}$FeC$_{4}$,0.0,eV/atom,
Ni$_{8}$P$_{3}$,0,eV/atom,
SrCd$_{2}$Pd,0.0,eV/atom,
LaCr$_{2}$Si$_{2}$C,0.0,eV/atom,
ZnP$_{4}$O$_{11}$,4.627,eV/atom,
TeO$_{3}$,1.1502999999999997,eV/atom,
KLiS,3.0571,eV/atom,
YAl$_{4}$Ni,0.0,eV/atom,
Ho$_{2}$Au$_{5}$F$_{21}$,1.6192,eV/atom,
Zr$_{6}$Co$_{23}$,0.0,eV/atom,
LuAl$_{3}$(PbO$_{4}$)$_{2}$,2.9847999999999995,eV/atom,
K$_{2}$NaAlF$_{6}$,6.8580000000000005,eV/atom,
Th$_{8}$Al$_{4}$H$_{11}$,0.0,eV/atom,
Tb$_{2}$Ni$_{12}$As$_{7}$,0.0,eV/atom,
OsCl$_{4}$,0.5104999999999998,eV/atom,
Ba$_{2}$Eu$_{3}$Mn$_{2}$(CuO$_{6}$)$_{2}$,0.0,eV/atom,
Hg$_{2}$Mo$_{2}$O$_{7}$,2.1942999999999997,eV/atom,
CsBiS$_{2}$,1.7469,eV/atom,
Sr$_{3}$NiRhO$_{6}$,0.0,eV/atom,
LiPr(WO$_{4}$)$_{2}$,3.6337,eV/atom,
Ba$_{3}$V$_{2}$O$_{8}$,3.7426999999999997,eV/atom,
Tb$_{2}$Si$_{2}$O$_{7}$,4.6357,eV/atom,
HS$_{3}$N,3.0889,eV/atom,
Sr$_{3}$Y$_{2}$(GeO$_{4}$)$_{3}$,3.1359,eV/atom,
Bi$_{2}$Te$_{4}$O$_{11}$,2.7870999999999997,eV/atom,
Eu$_{2}$Ir$_{2}$O$_{7}$,0.0,eV/atom,
MgO,4.444899999999999,eV/atom,
TmPb$_{3}$,0.0,eV/atom,
HoMgIn,0.0,eV/atom,
PrMgAg,0.0,eV/atom,
HoNiGe$_{2}$,0.0,eV/atom,
Sr$_{3}$Al$_{2}$Cl$_{2}$O$_{5}$,4.2155,eV/atom,
La(PRh)$_{2}$,0.0,eV/atom,
Na$_{8}$Ga$_{2}$O$_{7}$,2.2588000000000004,eV/atom,
HoPbAu,0.0,eV/atom,
CuH$_{4}$C$_{2}$NCl$_{3}$O,0.11909999999999998,eV/atom,
K$_{4}$Mn(AsS$_{4}$)$_{2}$,1.0475,eV/atom,
TcC,0.0,eV/atom,
ZnNi$_{3}$C,0.0,eV/atom,
Sn$_{2}$PClO$_{4}$,2.5705999999999998,eV/atom,
La$_{2}$Ta$_{2}$O$_{9}$,0.2240000000000002,eV/atom,
U$_{2}$CuAs$_{2}$(HO)$_{24}$,0.9341999999999999,eV/atom,
SrB$_{6}$(H$_{4}$O$_{7}$)$_{2}$,5.2619,eV/atom,
K$_{2}$NaNiF$_{6}$,0.0,eV/atom,
LiBeB,0.2816000000000001,eV/atom,
Nd$_{3}$Cu$_{3}$Sb$_{4}$,0.19750000000000068,eV/atom,
TaRh$_{3}$,0.0,eV/atom,
La$_{3}$AgSnSe$_{7}$,1.2989000000000006,eV/atom,
Tl(TeMo)$_{3}$,0.059500000000000774,eV/atom,
SrSnP,0.0,eV/atom,
RbCdAuS$_{2}$,1.9324,eV/atom,
DyZn$_{3}$,0.0,eV/atom,
MoH$_{8}$S$_{2}$(NO)$_{2}$,2.1419,eV/atom,
Ce$_{4}$S$_{3}$O$_{4}$,0.0,eV/atom,
TiSb,0.0,eV/atom,
Eu$_{4}$Al$_{2}$O$_{9}$,0.0,eV/atom,
USO$_{6}$,1.9501000000000002,eV/atom,
RbNb(PO$_{4}$)$_{2}$,3.0886,eV/atom,
CeInPt$_{4}$,0.0,eV/atom,
NaVTeO$_{5}$,3.0152,eV/atom,
Gd(Sn$_{3}$Ru$_{2}$)$_{2}$,0.017199999999999882,eV/atom,
Ca$_{3}$Cu$_{3}$(PO$_{4}$)$_{4}$,0.6006,eV/atom,
Ba$_{5}$Gd$_{8}$Mn$_{4}$O$_{21}$,2.0589999999999997,eV/atom,
Na$_{2}$LaPS$_{2}$O$_{7}$,3.6339000000000006,eV/atom,
Ce$_{2}$Si$_{2}$O$_{7}$,0.018600000000000172,eV/atom,
Na$_{2}$H$_{2}$CO$_{4}$,4.1589,eV/atom,
Nb$_{3}$Cr$_{3}$C,0.0,eV/atom,
EuTiO$_{3}$,0.0,eV/atom,
Mg(AlH$_{4}$)$_{2}$,4.3638,eV/atom,
ScInAg$_{2}$,0.0,eV/atom,
RbMn$_{6}$As$_{7}$O$_{24}$,1.6907999999999999,eV/atom,
TlBS$_{2}$,1.7606000000000002,eV/atom,
HfSCl$_{6}$O,3.2525,eV/atom,
SbRh,0.0,eV/atom,
CuMoF$_{6}$,6.000000000000172E-4,eV/atom,
Mg$_{3}$H$_{4}$O$_{5}$,3.5652,eV/atom,
NdAg,0.0,eV/atom,
LaAlGe,0.0,eV/atom,
SrSi$_{7}$N$_{10}$,3.9086999999999996,eV/atom,
Nb$_{6}$I$_{11}$,0.2782,eV/atom,
YbZn$_{11}$,0.0,eV/atom,
Li$_{2}$ZrF$_{6}$,6.477399999999999,eV/atom,
CaH$_{2}$CClO$_{3}$,3.5729,eV/atom,
Ca(SiRh)$_{2}$,0.0,eV/atom,
Pr(SiOs)$_{2}$,0.0,eV/atom,
YBRh$_{3}$,0.0,eV/atom,
FeHO$_{2}$,1.9678000000000004,eV/atom,
CoH$_{14}$C$_{3}$NCl$_{3}$O$_{2}$,2.6365,eV/atom,
LaNb$_{2}$ClO$_{6}$,2.5637,eV/atom,
Na$_{2}$SrMg(PO$_{4}$)$_{2}$,5.0055,eV/atom,
Ba$_{6}$Y$_{2}$Ti$_{4}$O$_{17}$,2.6451,eV/atom,
UTe$_{5}$,0.0,eV/atom,
Eu$_{2}$O$_{3}$,0.0,eV/atom,
B$_{3}$H$_{5}$,3.8726000000000003,eV/atom,
YAgO$_{2}$,2.4154,eV/atom,
LiCeO$_{2}$,0.0,eV/atom,
Rb$_{2}$ZnBr$_{4}$,3.6771000000000003,eV/atom,
Pr$_{4}$B$_{10}$O$_{21}$,4.990399999999999,eV/atom,
Cs$_{2}$Hg$_{6}$S$_{7}$,0.9796,eV/atom,
SmMgAg,0.0,eV/atom,
HfI$_{3}$,0.0,eV/atom,
LaFeGe$_{3}$,0.0,eV/atom,
GeP$_{3}$,0.0,eV/atom,
AgO,0.0,eV/atom,
NiH$_{14}$C$_{10}$(N$_{4}$O)$_{2}$,3.9482999999999997,eV/atom,
NaErGeO$_{4}$,3.6106999999999996,eV/atom,
K$_{2}$NaZn(BO$_{2}$)$_{5}$,4.2332,eV/atom,
La$_{3}$Sn$_{13}$Rh$_{4}$,0.05819999999999936,eV/atom,
PrBi,0.0,eV/atom,
BaPr$_{2}$CuO$_{5}$,0.4272,eV/atom,
BaV$_{2}$TeO$_{8}$,2.6883999999999997,eV/atom,
CuAgS,0.6406999999999998,eV/atom,
K$_{2}$HfF$_{6}$,6.8346,eV/atom,
SbRhSe,0.7354000000000003,eV/atom,
Al$_{8}$(Pb$_{3}$O$_{7}$)$_{3}$,2.8716,eV/atom,
Nd$_{3}$U(ClO$_{2}$)$_{3}$,1.4115000000000002,eV/atom,
K$_{2}$HgCl$_{4}$,2.297,eV/atom,
NdScGe,0.0,eV/atom,
Si(PbSe$_{2}$)$_{2}$,1.8203999999999998,eV/atom,
Sr$_{6}$Li$_{2}$Cr$_{2}$N$_{8}$O,1.8288000000000002,eV/atom,
Na$_{2}$NiH$_{8}$(SO$_{6}$)$_{2}$,4.575699999999999,eV/atom,
Ba$_{5}$Fe$_{5}$O$_{14}$,0.0,eV/atom,
Ca$_{3}$Sc$_{2}$(SiO$_{4}$)$_{3}$,4.1025,eV/atom,
GdMgPd,0.0026000000000001577,eV/atom,
Pr$_{2}$SiRh$_{3}$,0.0,eV/atom,
SbRuS,1.0282999999999998,eV/atom,
KZr$_{2}$(PO$_{4}$)$_{3}$,4.2822000000000005,eV/atom,
Ba$_{2}$InGaO$_{5}$,1.4190000000000005,eV/atom,
H$_{8}$AuC$_{2}$S$_{2}$N$_{4}$ClO$_{4}$,3.3284000000000002,eV/atom,
K$_{2}$HgO$_{2}$,2.0773,eV/atom,
K$_{6}$U$_{5}$V$_{2}$O$_{23}$,1.766,eV/atom,
SrLi$_{2}$Ta$_{2}$O$_{7}$,2.1666,eV/atom,
RbLuS$_{2}$,2.4006,eV/atom,
Li$_{5}$Tl$_{2}$,0.03469999999999995,eV/atom,
Li$_{2}$CuSn$_{2}$,0.0,eV/atom,
PH$_{9}$(NO$_{2}$)$_{2}$,4.8995,eV/atom,
Tb$_{3}$Co$_{29}$(Si$_{2}$B$_{5}$)$_{2}$,0.010299999999999976,eV/atom,
Nd$_{3}$Pd$_{4}$,0.0,eV/atom,
TbMnGe,0.0,eV/atom,
YbTaO$_{4}$,0.0,eV/atom,
CeGa$_{2}$,0.0,eV/atom,
Mn$_{3}$Al$_{2}$(SiO$_{4}$)$_{3}$,3.5565000000000007,eV/atom,
AgI,0.0,eV/atom,
Ga$_{4}$GeO$_{8}$,2.1456,eV/atom,
Pr$_{2}$(Zn$_{2}$Ge)$_{3}$,0.0,eV/atom,
Np(CrGe)$_{2}$,0.0,eV/atom,
EuFe$_{2}$,0.0,eV/atom,
RbSm(PO$_{3}$)$_{4}$,5.2964,eV/atom,
Nd$_{2}$Si$_{2}$O$_{7}$,4.8256000000000006,eV/atom,
MgB$_{3}$H$_{15}$O$_{13}$,5.1450000000000005,eV/atom,
PdI$_{2}$,0.9333999999999998,eV/atom,
Fe$_{3}$O$_{4}$,0.0,eV/atom,
La$_{3}$SbI$_{3}$,0.0,eV/atom,
Yb(CuGe)$_{2}$,0.0,eV/atom,
SnTe,0.04279999999999973,eV/atom,
Cu$_{3}$H$_{2}$(OF$_{2}$)$_{2}$,0.3217000000000001,eV/atom,
Mg$_{2}$Ge,0.0,eV/atom,
Sm(Al$_{2}$Cr)$_{4}$,0.0,eV/atom,
SrDy$_{2}$O$_{4}$,3.6952,eV/atom,
ZrI$_{2}$,0.28580000000000005,eV/atom,
ScSiPt$_{2}$,0.0,eV/atom,
Tl$_{2}$PtCl$_{6}$,1.7373999999999998,eV/atom,
Li$_{3}$CaMnN$_{3}$,0.07319999999999993,eV/atom,
Ba$_{2}$HgS$_{3}$,1.3556,eV/atom,
Sm$_{3}$Si$_{6}$N$_{11}$,3.0112999999999994,eV/atom,
CsHS$_{2}$(O$_{3}$F)$_{2}$,5.6582,eV/atom,
Cr$_{21}$(MoC$_{3}$)$_{2}$,0.0,eV/atom,
Mg$_{6}$Ni$_{16}$As$_{7}$,0.0,eV/atom,
Na$_{2}$UF$_{8}$,2.5450999999999997,eV/atom,
Rb(SnSe$_{2}$)$_{2}$,1.0336999999999998,eV/atom,
Zr$_{8}$Ni$_{21}$,0.007600000000000051,eV/atom,
H$_{7}$C$_{3}$N$_{3}$O$_{5}$,4.7405,eV/atom,O=C1NC(=O)NC(=O)N1.O.O
SbN$_{9}$,2.8757,eV/atom,
Ba$_{3}$Zn$_{5}$In$_{2}$O$_{11}$,1.6172999999999997,eV/atom,
ZnS,2.0481,eV/atom,
Li$_{4}$Re$_{6}$S$_{11}$,1.5798,eV/atom,
Hf$_{4}$CuP,0.0,eV/atom,
Ce$_{3}$Sb$_{3}$Au$_{2}$,0.0,eV/atom,
YbCu$_{4}$Ag,0.0,eV/atom,
Ce$_{2}$SeF$_{4}$,0.0,eV/atom,
Na$_{4}$Mn$_{2}$O$_{5}$,0.6534,eV/atom,
SNClO$_{4}$,1.2849,eV/atom,O=NOS(=O)(=O)Cl
In$_{2}$Cu,0.0,eV/atom,
ScCu$_{2}$,0.0,eV/atom,
K$_{3}$Nb$_{3}$Si$_{2}$O$_{13}$,2.1454,eV/atom,
RbIn(MoO$_{4}$)$_{2}$,3.9647,eV/atom,
Cr$_{5}$S$_{6}$,0.0,eV/atom,
UTiNb$_{2}$O$_{10}$,1.9793999999999998,eV/atom,
ZnS,2.0236,eV/atom,
Ti$_{3}$Ga,0.0,eV/atom,
LaPt$_{3}$,0.0,eV/atom,
CeSiRh$_{2}$,0.0,eV/atom,
ZnCuH$_{3}$ClO$_{3}$,0.45520000000000005,eV/atom,
Li$_{3}$SmBi$_{2}$,0.0,eV/atom,
Sb$_{2}$Pb$_{2}$O$_{7}$,1.6296000000000008,eV/atom,
Cs$_{2}$CoF$_{6}$,1.8373000000000002,eV/atom,
Ba$_{5}$Al$_{2}$In$_{2}$IrClO$_{13}$,0.0,eV/atom,
YbSb$_{2}$,0.0,eV/atom,
Zn$_{4}$P$_{3}$H$_{10}$C$_{2}$NO$_{13}$,3.7043,eV/atom,
Sr$_{5}$P$_{3}$ClO$_{12}$,5.0783,eV/atom,
TbPd$_{2}$,0.0,eV/atom,
Ca(MnBi)$_{2}$,0.0,eV/atom,
TbCoGe$_{2}$,0.0,eV/atom,
SrYb$_{2}$O$_{4}$,0.0,eV/atom,
AlCo$_{3}$,0.0,eV/atom,
La(C$_{2}$N$_{3}$)$_{3}$,3.5544000000000002,eV/atom,[La+3].N#C[N-]C#N.N#C[N-]C#N.N#C[N-]C#N
Tb$_{2}$SiSeO$_{4}$,2.5839,eV/atom,
Yb(SiRu)$_{2}$,0.0,eV/atom,
Sc$_{5}$NCl$_{8}$,0.0,eV/atom,
Na$_{2}$CoPO$_{4}$F,2.9785000000000004,eV/atom,
Sr$_{2}$Fe$_{2}$Se$_{2}$OF$_{2}$,1.9043999999999999,eV/atom,
Si$_{2}$N$_{2}$O,4.410699999999999,eV/atom,
Co$_{2}$Si(P$_{2}$O$_{7}$)$_{2}$,3.0023,eV/atom,
PrPb$_{3}$,0.0,eV/atom,
HoP,0.0,eV/atom,
K$_{3}$HPtS$_{2}$(ClO$_{3}$)$_{2}$,3.0012,eV/atom,
Cr(GaS$_{2}$)$_{2}$,0.0,eV/atom,
Tb$_{6}$CoCl$_{10}$,0.03370000000000006,eV/atom,
Cu$_{11}$PdN$_{4}$,0.0,eV/atom,
Al(CrB)$_{2}$,0.0,eV/atom,
Na$_{3}$Hg$_{2}$,0.0,eV/atom,
K$_{4}$Sr(SiO$_{3}$)$_{3}$,4.1609,eV/atom,
Ca$_{12}$Be$_{17}$O$_{29}$,3.6698999999999997,eV/atom,
Cu$_{2}$WS$_{4}$,1.4454,eV/atom,
Sr$_{2}$In$_{2}$O$_{5}$,0.9984999999999999,eV/atom,
YMgCu$_{4}$,0.0,eV/atom,
Gd,0.0,eV/atom,
PuAl$_{3}$,0.0023999999999997357,eV/atom,
Re$_{3}$Te$_{4}$Cl$_{5}$,1.2409000000000001,eV/atom,
Nb$_{3}$FeS$_{6}$,0.0,eV/atom,
Ba$_{2}$Pb,0.031400000000000095,eV/atom,
Cs$_{2}$LiNbS$_{4}$,2.4582,eV/atom,
Li$_{3}$AsO$_{4}$,4.1268,eV/atom,
LiV(IO$_{4}$)$_{2}$,2.6322,eV/atom,
Dy$_{2}$Mn$_{3}$Si$_{5}$,0.0,eV/atom,
H$_{4}$CSN$_{2}$,3.2851,eV/atom,S=C(N)N
CsSnF$_{3}$,3.8484000000000003,eV/atom,
Na$_{4}$Al$_{3}$Ge$_{3}$IO$_{12}$,3.4006,eV/atom,
NdO$_{2}$,3.4112,eV/atom,
AgC$_{2}$N$_{3}$,3.5682,eV/atom,
Al$_{13}$Ru$_{4}$,0.0,eV/atom,
Er(SiOs)$_{2}$,0.0,eV/atom,
LuC$_{2}$,0,eV/atom,
Cu$_{2}$GeS$_{3}$,0.10489999999999977,eV/atom,
CrSi,0.0,eV/atom,
K$_{3}$(FeS$_{2}$)$_{2}$,0.0,eV/atom,
CaHgPb,0.0,eV/atom,
Be$_{12}$Co,0.0,eV/atom,
Sc$_{2}$CdSe$_{4}$,0.47450000000000037,eV/atom,
MgTiO$_{3}$,3.5294999999999996,eV/atom,
Ca$_{7}$Cu(PtO$_{6}$)$_{2}$,0.0,eV/atom,
VB,0.0,eV/atom,
Ti$_{9}$Se$_{2}$,0.0,eV/atom,
Ta(TeBr$_{3}$)$_{2}$,1.1942,eV/atom,
Na$_{3}$H(SO$_{4}$)$_{2}$,5.1855,eV/atom,
KEr$_{2}$F$_{7}$,6.904599999999999,eV/atom,
K$_{2}$MgCr$_{2}$(H$_{2}$O$_{5}$)$_{2}$,2.9021,eV/atom,
Tb(Ni$_{2}$P)$_{2}$,0.0,eV/atom,
Rb$_{2}$PbO$_{3}$,1.2033,eV/atom,
PrCdGa,0.0,eV/atom,
K$_{2}$HgBr$_{2}$(NO$_{6}$)$_{2}$,1.9283000000000001,eV/atom,
GaPt,0.0,eV/atom,
ErZn$_{5}$,0.0,eV/atom,
TbS$_{2}$,0.0,eV/atom,
EuNiGe$_{2}$,0.0,eV/atom,
CsGe,1.3382999999999998,eV/atom,
ThN$_{2}$,0.0,eV/atom,
ErSn$_{2}$,0.0,eV/atom,
Na$_{2}$H$_{5}$RuN$_{5}$O$_{12}$,2.0896999999999997,eV/atom,
UOs$_{2}$,0.0,eV/atom,
LiMgSbPt,0.0,eV/atom,
Ba$_{5}$B$_{4}$O$_{11}$,3.7594000000000003,eV/atom,
NbI$_{4}$,0.47799999999999976,eV/atom,
CaAsPt,0.0,eV/atom,
CrBiO$_{3}$,1.2936999999999994,eV/atom,
CsCu$_{4}$Se$_{3}$,0.0,eV/atom,
CuP$_{2}$H$_{12}$N$_{2}$(O$_{4}$F)$_{2}$,0.05820000000000003,eV/atom,
KBiO$_{3}$,0.49140000000000006,eV/atom,
BaAsPd,0.0,eV/atom,
Sc$_{2}$MnSi,0.0,eV/atom,
Cd$_{3}$SiO$_{5}$,0.9679,eV/atom,
Ca$_{2}$AuN,0.0,eV/atom,
La$_{3}$Fe$_{2}$S$_{7}$,0.0,eV/atom,
Th$_{11}$(Ru$_{2}$C$_{3}$)$_{6}$,0.0,eV/atom,
Dy(Ni$_{2}$P)$_{2}$,0.0,eV/atom,
GdSn$_{3}$,0.04779999999999962,eV/atom,
SiO$_{2}$,5.5088,eV/atom,
CuAs$_{2}$S$_{8}$N$_{8}$(OF$_{7}$)$_{4}$,0.8385,eV/atom,
CsCuO$_{2}$,0.9433999999999999,eV/atom,
As$_{2}$S$_{3}$,2.0877999999999997,eV/atom,
K$_{4}$Nb$_{2}$S$_{11}$,1.3941999999999999,eV/atom,
CeSi,0.0,eV/atom,
Cs$_{2}$Na$_{2}$Sr(B$_{3}$O$_{5}$)$_{6}$,5.6254,eV/atom,
DyCrTeO$_{6}$,2.6766,eV/atom,
TiH$_{8}$(NF$_{3}$)$_{2}$,4.7166999999999994,eV/atom,
MoSe$_{2}$,1.4177000000000004,eV/atom,
NiB$_{4}$O$_{7}$,3.3555,eV/atom,
CuSnRh$_{2}$,0.0,eV/atom,
RbSmTe$_{2}$,1.3163999999999998,eV/atom,
MnC$_{4}$IO$_{4}$,2.3529999999999998,eV/atom,
NaZn$_{2}$(MoO$_{5}$)$_{2}$,0.06760000000000001,eV/atom,
NdNO$_{5}$,0.0,eV/atom,
Zr$_{5}$Ga$_{3}$,0.0,eV/atom,
Pr$_{3}$Si$_{2}$S$_{8}$Br,2.7496,eV/atom,
RbCa(H$_{2}$N)$_{3}$,1.8986,eV/atom,
H$_{2}$SeNO$_{4}$,1.1286,eV/atom,
K(Cu$_{2}$As)$_{2}$,0.0,eV/atom,
Y(SiAu)$_{2}$,0.0,eV/atom,
TiSO$_{5}$,2.1002,eV/atom,
Na$_{3}$InS$_{3}$,2.2716000000000003,eV/atom,
CeSiI,0.0,eV/atom,
LaHg$_{2}$,0.0,eV/atom,
Rb$_{2}$Mo$_{3}$O$_{10}$,3.3707,eV/atom,
Sm$_{2}$Mn$_{12}$P$_{7}$,0.0,eV/atom,
LiLa$_{2}$RuO$_{6}$,0.3146999999999993,eV/atom,
Ca$_{2}$CrOsO$_{6}$,0.36739999999999995,eV/atom,
LaPt$_{2}$,0.0,eV/atom,
Ta$_{2}$NiSe$_{7}$,0.0,eV/atom,
BaWO$_{4}$,3.6521,eV/atom,
Tb$_{4}$In$_{20}$Ni$_{11}$,0.0,eV/atom,
Ce$_{10}$S$_{19}$,0.0,eV/atom,
UCo$_{4}$B,0.0,eV/atom,
Ca$_{10}$Pr$_{4}$Cu$_{24}$O$_{41}$,0.0,eV/atom,
V$_{4}$Ag$_{2}$O$_{11}$,1.0722999999999998,eV/atom,
U(GeIr)$_{2}$,0.0,eV/atom,
Tm$_{3}$B$_{5}$O$_{12}$,5.3919,eV/atom,
Rb$_{3}$Mn$_{2}$Cl$_{7}$,0.837,eV/atom,
CsBaCr$_{3}$F$_{12}$,2.8965,eV/atom,
Na$_{2}$Mg$_{2}$P$_{3}$NO$_{9}$,5.0785,eV/atom,
CuHgSBr,0.4491999999999998,eV/atom,
Rh$_{2}$O$_{3}$,0.6193,eV/atom,
ErTe,0.0,eV/atom,
Sm$_{3}$AlN,0.0,eV/atom,
Np(MnSi)$_{2}$,0.0,eV/atom,
SrH$_{9}$ClO$_{5}$,4.6187000000000005,eV/atom,[Cl-].[Sr+2].[OH-].O.O.O.O
KLiBeF$_{4}$,6.8529,eV/atom,
Cr(RhSe$_{2}$)$_{2}$,0.0,eV/atom,
SrV$_{10}$O$_{15}$,0.9268999999999998,eV/atom,
HOF,3.1321,eV/atom,
VBiPbO$_{5}$,2.9091,eV/atom,
Mn$_{7}$SiO$_{12}$,0.39070000000000027,eV/atom,
Er(FeSi)$_{2}$,0.0,eV/atom,
Ni$_{5}$Te$_{4}$(ClO$_{6}$)$_{2}$,2.9419999999999997,eV/atom,
RbMgPO$_{4}$,4.5457,eV/atom,
SmNiGe,0.0,eV/atom,
P$_{5}$HC(NCl$_{6}$)$_{3}$,1.9789000000000003,eV/atom,
MgH$_{2}$,2.3531,eV/atom,
Nd$_{2}$Ti$_{2}$S$_{2}$O$_{5}$,0.8252999999999999,eV/atom,
Na$_{2}$NbF$_{6}$,0.2885,eV/atom,
Sr$_{4}$As$_{2}$O,1.1923999999999997,eV/atom,
Nd$_{3}$Sn$_{13}$Rh$_{4}$,0.0,eV/atom,
Eu(MnAs)$_{2}$,0.0,eV/atom,
Nd$_{2}$Mo(SeO$_{5}$)$_{2}$,3.3146000000000004,eV/atom,
RbInAs$_{2}$O$_{7}$,2.5506,eV/atom,
CsMnH$_{24}$(SO$_{10}$)$_{2}$,1.8193000000000001,eV/atom,
Tl(CuTe)$_{2}$,0.0,eV/atom,
Si$_{3}$Ru$_{2}$,0.3775000000000013,eV/atom,
RbAg$_{2}$(AsSe$_{2}$)$_{3}$,1.1615,eV/atom,
YTe$_{3}$,0.0,eV/atom,
UMo$_{5}$O$_{16}$,0.2885,eV/atom,
CeNiAs,0.0,eV/atom,
PrSnAu,0.0,eV/atom,
Li$_{2}$Hg(PO$_{3}$)$_{4}$,3.2670999999999997,eV/atom,
Rb$_{3}$Pb$_{4}$Au,0.15589999999999993,eV/atom,
VO$_{2}$,1.2524000000000002,eV/atom,
Pr$_{3}$(NiGe)$_{4}$,0.0,eV/atom,
HXeF$_{7}$,2.8857999999999997,eV/atom,F.F[Xe](F)(F)(F)(F)F
Er$_{2}$CrS$_{4}$,0.0,eV/atom,
K$_{2}$Sn$_{2}$O$_{3}$,1.3060999999999998,eV/atom,
ScTlP$_{2}$S$_{7}$,1.9444,eV/atom,
LaCu$_{2}$,0.0,eV/atom,
Si$_{3}$PH$_{27}$C$_{9}$BrN$_{2}$,2.8687,eV/atom,BrP(N(N([Si](C)(C)C)[Si](C)(C)C)[Si](C)(C)C)P(Br)N(N([Si](C)(C)C)[Si](C)(C)C)[Si](C)(C)C
Ge$_{3}$N$_{4}$,1.8872999999999998,eV/atom,
Sr$_{2}$H$_{6}$Ru,2.2349000000000006,eV/atom,
NaNO$_{3}$,2.9553,eV/atom,
Ge(Bi$_{3}$O$_{5}$)$_{4}$,2.3733000000000004,eV/atom,
Eu(POs)$_{2}$,0.0,eV/atom,
Sr$_{2}$TiO$_{4}$,1.9141999999999997,eV/atom,
Ca$_{4}$As$_{7}$Ir$_{8}$,0.0,eV/atom,
AlFeO$_{3}$,2.0326000000000004,eV/atom,
Eu(Al$_{2}$Cu)$_{4}$,0.0,eV/atom,
SrPd$_{3}$O$_{4}$,0.0,eV/atom,
K$_{2}$MnH$_{8}$(SO$_{6}$)$_{2}$,4.6128,eV/atom,
CoH$_{4}$C$_{4}$(NCl$_{2}$)$_{2}$,0.07030000000000003,eV/atom,
Li$_{3}$CrF$_{6}$,3.9644000000000004,eV/atom,
BeMo$_{3}$,0.0,eV/atom,
HoGa,0.0,eV/atom,
ScCrC$_{2}$,0.0,eV/atom,
Ca$_{2}$AlPt$_{2}$,0.0,eV/atom,
NdZn$_{11}$,0.0,eV/atom,
LaNi$_{2}$Rh$_{3}$,0.0,eV/atom,
FePd$_{3}$,0.0,eV/atom,
CsTa(PO$_{4}$)$_{2}$,3.3899999999999997,eV/atom,
SrWO$_{4}$,4.6571,eV/atom,
ScAlO$_{3}$,4.591900000000001,eV/atom,
BaZn$_{3}$P$_{4}$(H$_{7}$O$_{9}$)$_{2}$,0.0,eV/atom,
LuCuPb,0.0,eV/atom,
SmMgGa,0.0,eV/atom,
CsCrI$_{3}$,0.22120000000000006,eV/atom,
Lu$_{2}$InPd$_{2}$,0.0,eV/atom,
YSiNi$_{4}$,0.0,eV/atom,
B$_{4}$PF$_{9}$,5.712,eV/atom,
Co$_{5}$Se$_{4}$(BrO$_{6}$)$_{2}$,2.4476,eV/atom,
Li$_{2}$ZrTeO$_{6}$,2.7792,eV/atom,
Th(CoGe)$_{2}$,0.0,eV/atom,
CsFeCl$_{4}$,1.4014,eV/atom,
Hf(Ni$_{2}$P)$_{2}$,0.0,eV/atom,
MgSO$_{9}$,0.0,eV/atom,
MoP,0.0,eV/atom,
CuN,0.0,eV/atom,
Ca$_{2}$FeWO$_{6}$,0.9478999999999997,eV/atom,
V$_{6}$C$_{5}$,0.0,eV/atom,
K$_{3}$Cu(NO$_{3}$)$_{5}$,0.8737999999999999,eV/atom,
NaLiCO$_{3}$,4.313400000000001,eV/atom,
SrMgPt,0.0,eV/atom,
KBr,3.8776,eV/atom,
Cs$_{2}$PtI$_{6}$,0.6483999999999999,eV/atom,
NaN$_{3}$,3.9587,eV/atom,
Ca$_{2}$Zr$_{5}$Ti$_{2}$O$_{16}$,3.0873,eV/atom,
UCdO$_{4}$,1.9427999999999996,eV/atom,
VNi$_{2}$,0.0,eV/atom,
KNaLi$_{2}$(SO$_{4}$)$_{2}$,5.2970999999999995,eV/atom,
MoH,0.0,eV/atom,
Ge(SF$_{6}$)$_{2}$,4.9563,eV/atom,
Cs$_{4}$Ba(PO$_{3}$)$_{6}$,5.106400000000001,eV/atom,
PrInO$_{3}$,2.6395000000000004,eV/atom,
ZnPbF$_{6}$,1.9585000000000001,eV/atom,
SbO$_{2}$,2.0220000000000002,eV/atom,
Sn$_{2}$BF$_{7}$,4.400799999999999,eV/atom,
Y$_{3}$Zn$_{11}$,0.0,eV/atom,
KMnO$_{2}$,1.7773999999999999,eV/atom,
Y(FeSi)$_{2}$,0.0,eV/atom,
GeS,0.5581,eV/atom,
NdCoO$_{3}$,0.14219999999999988,eV/atom,
NaCoPO$_{4}$,2.7851000000000004,eV/atom,
InAs,0.0,eV/atom,
KEu$_{2}$Si$_{4}$O$_{10}$F,0.0,eV/atom,
CsNb(PO$_{4}$)$_{2}$,3.2732,eV/atom,
SrLi$_{2}$CrN$_{3}$,0.9497,eV/atom,
HfAlPd$_{2}$,0.0,eV/atom,
C$_{3}$O$_{2}$,3.8777,eV/atom,
Rb$_{2}$Hg(CN)$_{4}$,5.747999999999999,eV/atom,
Sm$_{3}$SnC,0,eV/atom,
SmRh$_{3}$C,0.0,eV/atom,
YO$_{2}$,0.0,eV/atom,
Hg$_{2}$P$_{3}$Cl,1.1288000000000005,eV/atom,
ScNi,0.0,eV/atom,
Ce$_{2}$Fe$_{2}$S$_{2}$O$_{3}$,0.0,eV/atom,
NaGa(H$_{2}$N)$_{4}$,1.2610999999999999,eV/atom,
KGaCuF$_{6}$,0.0,eV/atom,
CoPW,0.0,eV/atom,
SrMgSi,0.03299999999999992,eV/atom,
Ba$_{2}$V$_{5}$(PO$_{6}$)$_{4}$,1.0117,eV/atom,
MgH$_{8}$SO$_{8}$,5.2584,eV/atom,
Sr$_{2}$LiSi$_{3}$,0.0,eV/atom,
BiI$_{3}$,2.2241,eV/atom,
CuNiSb$_{2}$,0.0,eV/atom,
PbSe,0.0,eV/atom,
DyTiSi,0.0,eV/atom,
NaFeF$_{4}$,3.3274,eV/atom,
MnNiSb,0.0,eV/atom,
SnTe,0.0,eV/atom,
DyAg$_{2}$,0.0,eV/atom,
LuAsO$_{4}$,3.5333000000000006,eV/atom,
CaMo$_{5}$O$_{8}$,1.2218999999999998,eV/atom,
MgPNO$_{5}$,2.3828,eV/atom,
NbCo$_{2}$Sn,0.0,eV/atom,
HoBi,0.0,eV/atom,
NaAuCl$_{4}$,1.6074,eV/atom,
Cs$_{2}$Pd(IBr$_{2}$)$_{2}$,0.6891,eV/atom,
Mn$_{2}$Ge,0.0,eV/atom,
Ba$_{2}$Li$_{3}$(PO$_{3}$)$_{7}$,5.451099999999999,eV/atom,
LiCoPO$_{4}$,2.4571,eV/atom,
SiO$_{2}$,5.671,eV/atom,
Mg(Co$_{3}$P$_{2}$)$_{2}$,0.0,eV/atom,
BaZrN$_{2}$,0.9972000000000003,eV/atom,
TiO$_{2}$,1.4627999999999997,eV/atom,
Cu(NO$_{3}$)$_{2}$,0.0,eV/atom,
MnGa$_{4}$,0.0,eV/atom,
Sc$_{7}$BCl$_{12}$,0.0,eV/atom,
Zr$_{3}$V$_{3}$O,0.0033000000000003027,eV/atom,
NbCrN$_{2}$,0.0,eV/atom,
USeS,0.0,eV/atom,
BaI$_{2}$,3.4525000000000006,eV/atom,
TlPt$_{2}$Se$_{3}$,0.4569000000000001,eV/atom,
CdI$_{2}$,2.3796,eV/atom,
Mn$_{11}$Ge$_{8}$,0.0,eV/atom,
La$_{3}$InS$_{6}$,1.1154000000000002,eV/atom,
BaCa(PO$_{3}$)$_{4}$,5.5237,eV/atom,
TmAu$_{4}$,0.0,eV/atom,
UHg$_{4}$(AsCl$_{3}$)$_{2}$,0.32420000000000004,eV/atom,
HoAu$_{4}$,0.0,eV/atom,
Nb$_{2}$PS$_{10}$,1.3727,eV/atom,
Na$_{2}$SnSe$_{3}$,0.9568000000000001,eV/atom,
HoCo$_{2}$,0.0,eV/atom,
K$_{3}$IO$_{5}$,1.2686000000000002,eV/atom,
ThIr$_{2}$,0.0,eV/atom,
Mn$_{2}$GeO$_{4}$,1.0831,eV/atom,
Na$_{5}$P$_{3}$H$_{2}$O$_{11}$,0.3476,eV/atom,
Rb$_{2}$B$_{4}$O$_{7}$,4.594,eV/atom,
ZnH$_{20}$Se$_{2}$(NO$_{7}$)$_{2}$,3.637,eV/atom,
Na$_{2}$CS$_{3}$,1.215,eV/atom,
V$_{3}$Te$_{4}$,0.0,eV/atom,
La$_{8}$Ni$_{4}$Br$_{7}$,0.0,eV/atom,
Ca$_{2}$VBiO$_{6}$,3.0978999999999997,eV/atom,
Bi$_{2}$Au$_{5}$F$_{21}$,1.4016,eV/atom,
KSnS$_{2}$,0.0,eV/atom,
DyFeGe$_{2}$,0.0,eV/atom,
BaAgTeF,1.5093999999999999,eV/atom,
TmInAu$_{2}$,0.0,eV/atom,