formula,Property band_gap,Property band_gap units,Property SMILES
Na$_{6}$P$_{2}$H$_{2}$O$_{9}$,4.3754,eV/atom,
Ca$_{3}$SiO$_{5}$,3.3125000000000004,eV/atom,
Ga$_{2}$PbO$_{4}$,3.4441000000000006,eV/atom,[Pb+2].O=C([O-])C1=CC(O)=C(O)C(O)=C1.O=C([O-])C1=CC(O)=C(O)C(O)=C1
Th(CuGe)$_{2}$,0.0,eV/atom,
Ba$_{2}$YIrO$_{6}$,0.0,eV/atom,
Mg$_{3}$Mn$_{2}$(SiO$_{4}$)$_{3}$,0.0,eV/atom,
TbFeAsO,0.0,eV/atom,
NpTe$_{2}$,0.0,eV/atom,
Ac$_{2}$O$_{3}$,3.5225999999999997,eV/atom,
BaSi$_{3}$SnO$_{9}$,3.7232,eV/atom,
SrFeP(O$_{2}$F)$_{2}$,2.1975999999999996,eV/atom,
MnTl(VS$_{2}$)$_{4}$,0.0,eV/atom,
Rb$_{6}$O,0.0,eV/atom,
Y$_{2}$MgGe$_{2}$,0.0,eV/atom,
Ba$_{14}$Na$_{7}$CaN$_{6}$,0.0,eV/atom,
In$_{2}$Si$_{2}$O$_{7}$,2.7009000000000003,eV/atom,
Co$_{21}$(B$_{3}$Sb)$_{2}$,0.0,eV/atom,
YZnGe,0.0,eV/atom,
Cr$_{2}$HgO$_{4}$,1.2575000000000003,eV/atom,
KMnBr$_{3}$,1.7869,eV/atom,
Sr(PO$_{3}$)$_{2}$,5.5946,eV/atom,
PBr,0.0,eV/atom,[Br-].[PH4+]
CaSb$_{10}$(S$_{3}$O$_{5}$)$_{2}$,1.7464999999999993,eV/atom,
RbTmS$_{2}$,2.3680000000000003,eV/atom,
DyCd$_{2}$,0.0,eV/atom,
Er$_{2}$CoSi$_{2}$,0.0,eV/atom,
SmGa$_{4}$Co,0.0,eV/atom,
Sr(H$_{9}$O$_{5}$)$_{2}$,4.9945,eV/atom,[Sr+2].[OH-].[OH-].O.O.O.O.O.O.O.O
K$_{3}$BS$_{3}$,2.7148,eV/atom,
SnHg$_{6}$(P$_{2}$Cl$_{3}$)$_{2}$,2.2093000000000003,eV/atom,
Rb$_{3}$Bi,0.0,eV/atom,
Dy$_{3}$S$_{3}$N,1.3945000000000003,eV/atom,
SeO$_{2}$,3.2709,eV/atom,O=[Se]=O
K$_{3}$Ga$_{3}$As$_{4}$,0.8722000000000001,eV/atom,
U(GePt)$_{2}$,0.0,eV/atom,
Mn$_{4}$Nb$_{2}$Si$_{5}$,0.0,eV/atom,
K$_{2}$LiAlF$_{6}$,7.2639,eV/atom,
TiTe$_{2}$,0.0,eV/atom,
K$_{8}$SnSb$_{4}$,0.31899999999999995,eV/atom,
CoSe,0.0,eV/atom,
Ho$_{5}$Sb$_{3}$,0.0,eV/atom,
CdAs$_{2}$,0.1511,eV/atom,
Sr$_{3}$(AlN$_{2}$)$_{2}$,1.9055,eV/atom,
Dy$_{6}$FeTe$_{2}$,0.0,eV/atom,
BaCu$_{2}$GeSe$_{4}$,0.35939999999999994,eV/atom,
CsK$_{2}$Yb(PO$_{4}$)$_{2}$,0.0,eV/atom,
CsErSiS$_{4}$,3.0331,eV/atom,
CoGe,0.0,eV/atom,
LiBiO$_{3}$,0.1445000000000003,eV/atom,
FeSi,0.18090000000000117,eV/atom,
KGe$_{2}$BO$_{6}$,3.498,eV/atom,
Y$_{4}$Si$_{5}$Rh$_{9}$,0.0,eV/atom,
Ti$_{3}$SnH,0.0,eV/atom,
ErFe$_{4}$B,0.0,eV/atom,
CsAgBr$_{2}$,1.796,eV/atom,
LiPt$_{7}$,0.0,eV/atom,
BaCd$_{2}$,0.0,eV/atom,
LuRe$_{2}$,0.0,eV/atom,
Pr$_{2}$ReC$_{2}$,0.0,eV/atom,
Na$_{4}$I$_{2}$O,2.2131000000000003,eV/atom,
Na$_{2}$As$_{4}$O$_{11}$,2.0736,eV/atom,
Tl$_{2}$Mo$_{9}$S$_{11}$,0.0,eV/atom,
Sc$_{2}$MnSe$_{4}$,0.0,eV/atom,
DyIn$_{5}$Rh,0.0,eV/atom,
K$_{2}$Ti(GeO$_{3}$)$_{3}$,2.8470999999999997,eV/atom,
Ba(SbAu)$_{2}$,0.0,eV/atom,
NaSr$_{3}$BiO$_{6}$,1.7251000000000003,eV/atom,
Cu$_{3}$PS$_{4}$,1.0202,eV/atom,
SmAl$_{4}$,0.0,eV/atom,
Cs$_{2}$IrCl$_{6}$,0.0,eV/atom,
TmAsPd,0.0,eV/atom,
PrIn$_{5}$Rh,0.0,eV/atom,
K$_{2}$CO$_{3}$,3.2835,eV/atom,
SrZnSbF,0.0,eV/atom,
Mn$_{3}$(PO$_{4}$)$_{2}$,3.0258,eV/atom,
MgSO$_{5}$,0.0,eV/atom,
LaSb,0.0,eV/atom,
LaIn$_{2}$Rh,0.0,eV/atom,
S$_{3}$N$_{2}$Cl,1.2724,eV/atom,
H$_{6}$Pt(NO)$_{4}$,2.5415,eV/atom,
KTi$_{5}$Se$_{8}$,0.0,eV/atom,
Zr$_{2}$Fe,0.0,eV/atom,
Rb$_{2}$U$_{3}$(IO$_{5}$)$_{4}$,1.8860999999999999,eV/atom,
K$_{2}$UP$_{2}$(H$_{2}$O$_{5}$)$_{2}$,0.006900000000000003,eV/atom,
ZnTeO$_{3}$,3.4996,eV/atom,
CsHoS$_{2}$,2.1354,eV/atom,
Cu$_{2}$Bi$_{4}$Pb$_{2}$S$_{9}$,0.7154000000000007,eV/atom,
Mn$_{3}$Ga,0.0,eV/atom,
La$_{3}$Cu$_{3}$Bi$_{4}$,0.29329999999999945,eV/atom,
PuB$_{2}$Os$_{3}$,0.0,eV/atom,
TiBr$_{4}$,2.7818,eV/atom,
NdVGe$_{3}$,0.0,eV/atom,
Tm$_{2}$In,0.0,eV/atom,
Nd$_{4}$Si$_{2}$S$_{3}$O$_{7}$,2.5812999999999997,eV/atom,
NiBiPO$_{5}$,3.8254,eV/atom,
K$_{2}$FeCo(CN)$_{6}$,0.0,eV/atom,
LuNiSb,0.21590000000000042,eV/atom,
NbSeI$_{3}$,0.6281000000000003,eV/atom,
Li$_{2}$H$_{2}$Pd,0.0,eV/atom,
Cs(SO$_{2}$)$_{2}$,2.2336,eV/atom,
H$_{3}$N,3.7337000000000002,eV/atom,
Ba$_{2}$Cd$_{3}$Bi$_{4}$,0.0,eV/atom,
SiP$_{2}$O$_{7}$,5.788,eV/atom,
NClO,1.6939000000000002,eV/atom,[Cl-].O[NH3+]
Ce(NiSb)$_{2}$,0.0,eV/atom,
HoTl$_{3}$,0.0,eV/atom,
ScNiGe,0.0,eV/atom,
KTa$_{5}$O$_{13}$,3.1482,eV/atom,
AsS,0.0,eV/atom,F[S+](F)F.F[As-](F)(F)(F)(F)F
BaCaCO$_{3}$,0.0,eV/atom,
InPd$_{5}$Se,0.0,eV/atom,
Pd$_{2}$S$_{9}$N$_{4}$,1.3486999999999998,eV/atom,
Rb$_{2}$Mo(SO)$_{2}$,2.3944,eV/atom,
ErZnGa,0.0,eV/atom,
ReOF$_{4}$,0.9318,eV/atom,
In$_{5}$(BiS$_{4}$)$_{3}$,1.4931999999999999,eV/atom,
Sr$_{2}$In$_{3}$Rh$_{2}$,0.0,eV/atom,
Si$_{4}$MoPt$_{3}$,0.0,eV/atom,
LiYbAs,0.9901,eV/atom,
Mg$_{2}$C$_{3}$,1.6533000000000002,eV/atom,
Rb$_{6}$LiNd$_{11}$Se$_{12}$(Cl$_{4}$O$_{9}$)$_{4}$,3.1140999999999996,eV/atom,
Cs$_{2}$Li$_{2}$TiO$_{4}$,3.9553999999999996,eV/atom,
Ba$_{2}$Fe$_{3}$F$_{10}$,3.4795,eV/atom,
Os$_{4}$C$_{13}$SO$_{13}$,1.96,eV/atom,
BaGe$_{2}$,0.5255000000000001,eV/atom,
Li$_{2}$CuP,0.0,eV/atom,
Sr$_{2}$CuSi$_{2}$O$_{7}$,0.15869999999999962,eV/atom,
Sr$_{3}$CrN$_{3}$,0.0,eV/atom,
KCa$_{9}$Mg(PO$_{4}$)$_{7}$,5.2794,eV/atom,
Pr$_{2}$In$_{8}$Co,0.0,eV/atom,
Sr$_{11}$Ga$_{4}$Sn$_{3}$,0.0,eV/atom,
Tl$_{2}$CdTe$_{4}$,0.07629999999999981,eV/atom,
Yb$_{3}$Ni$_{7}$B$_{2}$,0.0,eV/atom,
Ni$_{4}$N,0.0,eV/atom,
K$_{3}$SbS$_{4}$,2.1341,eV/atom,
Cs$_{3}$ClO,1.8351000000000002,eV/atom,
Dy(MnGe)$_{2}$,0.0,eV/atom,
Na$_{2}$PH$_{15}$O$_{11}$,4.5395,eV/atom,
CsHSO$_{4}$,5.5519,eV/atom,
Ag$_{3}$AuS$_{2}$,0.1802999999999999,eV/atom,
Li$_{2}$Sn$_{2}$Au,0.0,eV/atom,
Gd(NiGe)$_{2}$,0.0,eV/atom,
Ca$_{4}$SiN$_{4}$,1.4498000000000002,eV/atom,
Hf$_{2}$Co$_{3}$Si$_{4}$,0.0,eV/atom,
YCuSi,0.0,eV/atom,
Sb$_{2}$O$_{5}$,0.0,eV/atom,
Cr$_{3}$AgO$_{8}$,1.1888999999999998,eV/atom,
TlCdSe$_{2}$,0.0,eV/atom,
ScP(H$_{2}$O$_{3}$)$_{2}$,4.8637999999999995,eV/atom,[Sc+3].O=P([O-])([O-])[O-].O.O
YSiAg,0.0,eV/atom,
CeB$_{2}$Ir$_{2}$C,0.0,eV/atom,
NiS$_{2}$,0.0,eV/atom,
NbCr$_{2}$,0.0,eV/atom,
Dy$_{2}$Tc$_{2}$O$_{7}$,0.0,eV/atom,
La$_{2}$Fe$_{2}$Se$_{2}$O$_{3}$,1.6916000000000002,eV/atom,
V$_{3}$Pb$_{5}$ClO$_{12}$,2.7954,eV/atom,
Sc$_{7}$NCl$_{12}$,0.0042999999999997485,eV/atom,
BaSb$_{3}$,0.0,eV/atom,
Tl$_{4}$Hg$_{3}$Sb$_{2}$(As$_{2}$S$_{5}$)$_{4}$,1.6628000000000003,eV/atom,
Ba$_{2}$(InAs)$_{5}$,0.045700000000000074,eV/atom,
Mo$_{5}$PbO$_{8}$,1.1307,eV/atom,
Nb$_{3}$Ga$_{2}$,0.0,eV/atom,
Pr$_{6}$Fe$_{13}$Si,0,eV/atom,
HoBi$_{2}$BrO$_{4}$,1.3664999999999994,eV/atom,
Zr$_{6}$Al$_{2}$Ni,0.0,eV/atom,
CsC$_{3}$(SeN)$_{3}$,1.8086,eV/atom,
K$_{3}$Hg$_{3}$S$_{2}$Cl$_{5}$O$_{6}$,2.3158,eV/atom,
Dy$_{2}$Zn$_{17}$,0.0,eV/atom,
TbMg$_{2}$Cu$_{9}$,0.0,eV/atom,
NaZnBr$_{3}$O$_{5}$,0.38819999999999993,eV/atom,
ZrGe$_{2}$,0.0,eV/atom,
YbVO$_{4}$,0.0,eV/atom,
AgTeO$_{3}$,1.6662000000000003,eV/atom,
Cs$_{2}$SbBr$_{6}$,0.0,eV/atom,
Tl$_{2}$Au$_{4}$S$_{3}$,1.1304999999999996,eV/atom,
V$_{2}$C,0.0,eV/atom,
CuH$_{2}$N$_{2}$O$_{7}$,0.20340000000000003,eV/atom,[Cu+2].O=[N+]([O-])[O-].O=[N+]([O-])[O-].O
NdCo$_{2}$,0.0,eV/atom,
ErTiSi,0.0,eV/atom,
Gd$_{10}$S$_{14}$O,1.2678000000000003,eV/atom,
K$_{4}$Nb$_{11}$Al$_{2}$O$_{20}$F,0.6705000000000005,eV/atom,
CuP$_{3}$H$_{12}$NO$_{13}$,0.0,eV/atom,
Na$_{2}$PbO$_{2}$,2.4071,eV/atom,
UTlH(SeO$_{4}$)$_{2}$,2.1660999999999997,eV/atom,
TePt,0.0,eV/atom,
CeSnIr,0.0,eV/atom,
NiP$_{3}$H$_{12}$NO$_{7}$,4.6113,eV/atom,
AgBF$_{5}$,0.0,eV/atom,
CeSi$_{2}$,0.0,eV/atom,
NaPt$_{2}$,0.0,eV/atom,
Re$_{2}$(HgO$_{2}$)$_{5}$,1.1042999999999998,eV/atom,
Rb$_{5}$Au$_{3}$O$_{2}$,0.8051000000000001,eV/atom,
Cs$_{3}$CrF$_{7}$,0.7466,eV/atom,
EuZrSe$_{3}$,0.0,eV/atom,
UBRh$_{3}$,0.0,eV/atom,
HoGeIr,0.0,eV/atom,
Gd(MnGe)$_{2}$,0.0035999999999996035,eV/atom,
Sb$_{2}$Te$_{4}$Pb,0.26730000000000054,eV/atom,
SrLiGaN$_{2}$,1.8413,eV/atom,
TiFe$_{2}$O$_{5}$,1.73,eV/atom,
H$_{8}$C$_{2}$NCl,5.1211,eV/atom,[Cl-].C[NH2+]C
HfNiGe,0.018500000000000405,eV/atom,
Ni$_{3}$Sn$_{2}$,0.0,eV/atom,
GdCuSe$_{2}$,0.7496,eV/atom,
SmCoGe$_{2}$,0.0,eV/atom,
NaCaB$_{5}$H$_{8}$O$_{13}$,4.884399999999999,eV/atom,
AgH$_{8}$C$_{4}$S$_{3}$(OF)$_{3}$,3.4096,eV/atom,[Ag+].[Ag+].O=S(=O)([O-])C(F)(F)F.O=S(=O)([O-])C(F)(F)F.S(C)CSC
BaSi$_{6}$N$_{8}$O,4.2279,eV/atom,
CrH$_{17}$N$_{4}$Cl$_{2}$O$_{3}$,3.6068,eV/atom,
UAsS,0.0,eV/atom,
Sr(DyS$_{2}$)$_{2}$,2.1788999999999996,eV/atom,
RbAs,0.5850999999999997,eV/atom,
Li$_{6}$B$_{4}$O$_{9}$,4.8958,eV/atom,
CdGeO$_{3}$,1.5283000000000002,eV/atom,
Cs$_{2}$TiV$_{3}$(PO$_{6}$)$_{3}$,2.0845000000000002,eV/atom,
Al$_{6}$Ru,0.0,eV/atom,
Al$_{3}$Pt$_{2}$,0.0,eV/atom,
H$_{22}$RhC$_{3}$(N$_{3}$O$_{4}$)$_{2}$,3.2578,eV/atom,
YMgGa,0.0,eV/atom,
K$_{2}$VAgSe$_{4}$,1.0266,eV/atom,
Zn$_{3}$B$_{7}$ClO$_{13}$,4.4852,eV/atom,
Pr$_{3}$Nb(Cl$_{3}$O$_{2}$)$_{2}$,2.9226,eV/atom,
Tm$_{3}$Al$_{2}$,0.0,eV/atom,
Be(BC)$_{2}$,0.21089999999999964,eV/atom,
GaBiO$_{3}$,1.8781999999999996,eV/atom,
Cs$_{2}$NaGaF$_{6}$,5.9678,eV/atom,[Na+].[Cs+].[Cs+].O=C([O-])C1(F)C=C(O)C(F)(O)C(F)(OF)C1(F)F.O=C([O-])C1(F)C=C(O)C(F)(O)C(F)(OF)C1(F)F.O=C([O-])C1(F)C=C(O)C(F)(O)C(F)(OF)C1(F)F
TcP$_{3}$,0.4488000000000003,eV/atom,
Pr$_{2}$(ReB$_{2}$)$_{3}$,0.0,eV/atom,
ErSnPd,0.0,eV/atom,
Na$_{3}$ScBr$_{6}$,3.3731,eV/atom,
SrSnAu,0.0,eV/atom,
Cs$_{5}$Nb$_{2}$S$_{4}$Cl$_{9}$,1.7853999999999999,eV/atom,
U$_{2}$CuP$_{2}$(H$_{4}$O$_{5}$)$_{4}$,0.7558999999999999,eV/atom,
CrNiSb,0.0,eV/atom,
Ba$_{3}$MgTa$_{2}$O$_{9}$,3.2733,eV/atom,
LiSn,0.0,eV/atom,
Ba$_{2}$ZrF$_{8}$,5.9374,eV/atom,
BiPtSe,0.0,eV/atom,
Be$_{5}$Fe,0.0,eV/atom,
Na$_{4}$SiO$_{4}$,3.2221,eV/atom,
EuCuSeO,0.0,eV/atom,
LiAs(HO$_{2}$)$_{2}$,3.9942,eV/atom,
Cu$_{2}$ClO$_{3}$,0.0,eV/atom,
RbAs$_{2}$H$_{5}$O$_{8}$,3.8425,eV/atom,
RbSb,0.7328000000000001,eV/atom,
VBiO$_{4}$,3.4013999999999998,eV/atom,
MgCuSb,0.0,eV/atom,
Er$_{3}$Ni$_{2}$,0.0035999999999996035,eV/atom,
Lu(SiRh)$_{2}$,0.0,eV/atom,
PH$_{4}$N$_{3}$,4.6014,eV/atom,
Ce$_{3}$SiPd$_{5}$,1.9999999999953388E-4,eV/atom,
PbS,0.5555000000000003,eV/atom,
Ca$_{2}$InPd$_{2}$,0.0,eV/atom,
Ho$_{2}$CdSe$_{4}$,0.6088,eV/atom,
Sr$_{2}$GdRuO$_{6}$,0.34609999999999985,eV/atom,
Cs$_{2}$BaP$_{2}$O$_{7}$,4.6544,eV/atom,
K$_{2}$Mo(SO$_{5}$)$_{2}$,2.8796000000000004,eV/atom,
UF$_{4}$,0.0,eV/atom,
Sr$_{3}$MgTa$_{2}$O$_{9}$,3.3127000000000004,eV/atom,
V$_{2}$ZnO$_{4}$,1.6539999999999995,eV/atom,
NaLa$_{2}$IrO$_{6}$,0.0,eV/atom,
BaNaB$_{5}$O$_{9}$,5.0076,eV/atom,
K$_{4}$Ba(SiO$_{3}$)$_{3}$,4.2288,eV/atom,
H$_{12}$C$_{4}$INO$_{3}$,3.9587,eV/atom,
Fe$_{2}$CoGe,0.0,eV/atom,
V$_{3}$H$_{6}$CNO$_{7}$,1.9649,eV/atom,
In$_{2}$Se$_{3}$,0.0,eV/atom,
PrGePd$_{2}$,0.0,eV/atom,
Co(SbO$_{3}$)$_{2}$,0.2839999999999998,eV/atom,
K$_{2}$Ni(NO$_{3}$)$_{4}$,2.9637,eV/atom,
Ba$_{2}$AlInO$_{5}$,2.0183,eV/atom,
Sm(SiPd)$_{2}$,0.0,eV/atom,
Dy(CrGe)$_{2}$,0.0,eV/atom,
La$_{5}$Al$_{3}$Ni$_{2}$,0.0,eV/atom,
K$_{2}$NaRhF$_{6}$,1.9994,eV/atom,
SmCrTeO$_{6}$,2.6567,eV/atom,
UCoO$_{4}$,1.4455999999999998,eV/atom,
Sb$_{6}$S$_{2}$O$_{15}$,3.2471999999999994,eV/atom,
LuAg$_{2}$,0.0,eV/atom,
TmP$_{5}$,0.12230000000000008,eV/atom,
Zr$_{4}$Co$_{7}$Ge$_{6}$,0,eV/atom,
Cd(HO)$_{2}$,0.9847,eV/atom,
NbNiGe,0.0,eV/atom,
CeAl$_{2}$,0.0,eV/atom,
LiMgB$_{3}$(H$_{9}$N)$_{2}$,6.5113,eV/atom,
Pu$_{6}$Co,0.0,eV/atom,
La,0.0,eV/atom,
RbScO$_{2}$,3.4540999999999995,eV/atom,
NaAlH$_{4}$,1.9579000000000002,eV/atom,
Sr$_{4}$Fe$_{6}$O$_{13}$,0.05779999999999985,eV/atom,
SrNb$_{8}$O$_{14}$,0.25839999999999996,eV/atom,
EuHg,0.0,eV/atom,
La$_{12}$C$_{6}$I$_{17}$,0.0,eV/atom,
CaAl$_{12}$Si$_{4}$O$_{27}$,5.236199999999999,eV/atom,
Mo$_{3}$S$_{4}$,0.0,eV/atom,
ScFeC$_{2}$,0.0,eV/atom,
LiHoGe,0.0,eV/atom,
K$_{3}$P$_{6}$N$_{11}$,3.9959,eV/atom,
GeRh,0.0,eV/atom,
NaMo$_{6}$Br$_{13}$,1.9979000000000002,eV/atom,
NiTe$_{2}$O$_{5}$,2.5059999999999993,eV/atom,
Nd$_{4}$Te$_{3}$N$_{2}$,0.7672999999999996,eV/atom,
Tl$_{2}$S$_{5}$,1.6678999999999995,eV/atom,
CdTeMoO$_{6}$,3.1893999999999996,eV/atom,
AlSb,0.9179000000000004,eV/atom,
TmS$_{2}$,0.0,eV/atom,
Ba$_{3}$LiN,0.0,eV/atom,
InSb$_{2}$S$_{4}$Br,1.5220000000000002,eV/atom,
KGaO$_{2}$,2.8487,eV/atom,
Sr$_{5}$(GeN$_{3}$)$_{2}$,1.3525,eV/atom,
Ba$_{3}$DyRu$_{2}$O$_{9}$,0.0,eV/atom,
Rb$_{4}$LiZr$_{3}$H$_{2}$F$_{19}$,6.1954,eV/atom,
Ga$_{2}$Te$_{4}$O$_{11}$,3.5027000000000004,eV/atom,
InH$_{8}$C$_{4}$NO$_{10}$,3.5606,eV/atom,
TbMoO$_{4}$F,3.7675,eV/atom,
KAg$_{3}$As$_{2}$S$_{5}$,1.6822999999999997,eV/atom,
K$_{3}$LiIrO$_{4}$,0.39849999999999985,eV/atom,
AlH$_{18}$(BrO$_{6}$)$_{3}$,0.11959999999999993,eV/atom,
Er$_{3}$Rh,0.0,eV/atom,
Ba$_{3}$P$_{6}$(N$_{4}$O$_{3}$)$_{2}$,4.546600000000001,eV/atom,
GaBr$_{3}$,3.3472999999999997,eV/atom,
Bi$_{4}$Pb(ClO$_{3}$)$_{2}$,0.0,eV/atom,
Sc$_{29}$Fe$_{6}$,0.0,eV/atom,
Sc$_{3}$(MnGa$_{3}$)$_{2}$,0.0,eV/atom,
NaP$_{3}$H$_{10}$(NO$_{5}$)$_{2}$,5.0566,eV/atom,
KNiAsO$_{4}$,2.7959,eV/atom,
Na$_{2}$TiFe$_{5}$(Si$_{3}$O$_{10}$)$_{2}$,2.3046,eV/atom,
SbIrSe,1.2113000000000005,eV/atom,
USi,0.0,eV/atom,
Ba$_{4}$SiP$_{4}$,1.0893000000000002,eV/atom,
Cs$_{2}$CeCl$_{6}$,1.6178,eV/atom,
YbGaNi,0.0,eV/atom,
K$_{2}$PtC$_{4}$(SN)$_{4}$,0.10299999999999998,eV/atom,
Ba$_{19}$Na$_{29}$Li$_{13}$,0.014700000000000046,eV/atom,
KCa$_{2}$Nb$_{3}$O$_{10}$,1.9567999999999999,eV/atom,
NaNbO$_{2}$F,0.0,eV/atom,
Yb$_{2}$CuGe$_{6}$,0.0,eV/atom,
AlHg$_{2}$SbCl$_{4}$,0.8372,eV/atom,
Lu$_{3}$Pt$_{4}$,0.0,eV/atom,
BaV$_{4}$O$_{9}$,1.0483000000000002,eV/atom,
CuN$_{6}$,0.0,eV/atom,
Ca$_{3}$(B$_{3}$Rh$_{4}$)$_{2}$,0.0,eV/atom,
LiTlO$_{2}$,0.40200000000000014,eV/atom,
OsC$_{4}$ClO$_{4}$,2.4779,eV/atom,
Sc(CuSi)$_{2}$,0.0,eV/atom,
Na$_{2}$Er$_{2}$B$_{2}$O$_{7}$,4.3493,eV/atom,
Sr$_{2}$Be$_{2}$B$_{2}$O$_{7}$,4.079700000000001,eV/atom,
LaNb$_{7}$O$_{12}$,0.4455,eV/atom,
BaSO$_{4}$,5.950699999999999,eV/atom,
CaCr$_{2}$Cu$_{3}$(SbO$_{6}$)$_{2}$,0.6833999999999998,eV/atom,
KZnB(H$_{2}$Cl)$_{2}$,4.8819,eV/atom,
LuAsPt,0.0,eV/atom,
Hg$_{2}$H$_{12}$C$_{4}$I$_{5}$N,1.7551,eV/atom,
LiNd$_{2}$Tl(MoO$_{4}$)$_{4}$,2.9659000000000004,eV/atom,
Na$_{2}$AgF$_{4}$,0.6142000000000001,eV/atom,
In$_{2}$Co$_{3}$S$_{2}$,0.02400000000000002,eV/atom,
CaCeC$_{2}$O$_{6}$F,0.08029999999999937,eV/atom,
Na$_{4}$IrO$_{4}$,0.42910000000000004,eV/atom,
K$_{2}$Mn$_{2}$(SO$_{4}$)$_{3}$,4.431,eV/atom,
V$_{4}$GeSe$_{8}$,0.0,eV/atom,
Ce$_{2}$Fe$_{2}$Se$_{2}$O$_{3}$,0.0,eV/atom,
HfGeIr,0.0,eV/atom,
LaF$_{3}$,5.761,eV/atom,
Ge$_{19}$(PI)$_{4}$,1.0766000000000004,eV/atom,
Sr$_{3}$ScRhO$_{6}$,2.2663999999999995,eV/atom,
Ca$_{5}$(SiN$_{3}$)$_{2}$,2.1605,eV/atom,
U(CoP)$_{2}$,0.0,eV/atom,
LiBeP,1.1585,eV/atom,
Na$_{2}$Si(S$_{2}$O$_{7}$)$_{3}$,5.3318,eV/atom,
YbGaPt,0.0,eV/atom,
Hg$_{3}$N$_{2}$Cl$_{8}$O,0.0,eV/atom,
Ce$_{5}$Sn$_{4}$,8.999999999996788E-4,eV/atom,
CeBr$_{3}$,0.08930000000000016,eV/atom,
Nd$_{3}$IrO$_{7}$,0.0,eV/atom,
Pr(AgGe)$_{2}$,0.0,eV/atom,
Sc$_{2}$CrB$_{6}$,0.0,eV/atom,
Ti$_{2}$N,0.0,eV/atom,
Rb$_{8}$Tl$_{11}$,0.0,eV/atom,
Ni(N$_{4}$O$_{3}$)$_{2}$,0.0,eV/atom,
Tl$_{3}$BiCl$_{6}$,2.8618,eV/atom,
ZrAlPt,0.0,eV/atom,
YCoC$_{2}$,0.0,eV/atom,
CaBe$_{2}$(PO$_{4}$)$_{2}$,5.8263,eV/atom,
Pr$_{3}$(MnSn)$_{4}$,0.0,eV/atom,
SmCrGe$_{3}$,0.0,eV/atom,
Pd$_{17}$Se$_{15}$,0.0,eV/atom,
Co$_{3}$P$_{4}$PbO$_{14}$,2.8625000000000003,eV/atom,
HfF$_{4}$,5.402,eV/atom,
SmPdPb,0.0,eV/atom,
Li$_{4}$HN,1.9198,eV/atom,
SrV$_{3}$P$_{4}$O$_{17}$,1.8247,eV/atom,
Eu$_{2}$Re$_{6}$S$_{11}$,0.0,eV/atom,
Sr(SbPd)$_{2}$,0.0,eV/atom,
GaS$_{5}$N$_{5}$Cl$_{4}$,2.2969,eV/atom,
Sr$_{2}$B$_{8}$Ru$_{7}$,0.0,eV/atom,
Tl$_{2}$SnCl$_{6}$,2.4814,eV/atom,
NdRhC$_{2}$,0.0,eV/atom,
LuCrO$_{3}$,2.5313000000000003,eV/atom,
NaZrCuSe$_{3}$,0.30420000000000025,eV/atom,
RbEuPO$_{4}$,0.8320999999999996,eV/atom,
Li$_{5}$(NiN)$_{3}$,0.0,eV/atom,
PbS,1.3589000000000002,eV/atom,
Ba$_{2}$DyGaSe$_{5}$,1.8192000000000002,eV/atom,
FeAg$_{3}$(CN)$_{6}$,0.0,eV/atom,
W,0.0,eV/atom,
U$_{3}$Fe$_{2}$Ge$_{7}$,0.0,eV/atom,
Ti$_{2}$Zn,0.0,eV/atom,
Er$_{3}$(AlNi$_{3}$)$_{2}$,0.0,eV/atom,
SnPbO$_{3}$,0.0,eV/atom,
Li$_{4}$H$_{3}$BrO$_{3}$,4.4379,eV/atom,
KNa(BH$_{4}$)$_{2}$,6.3522,eV/atom,
CeIn$_{3}$,0.0,eV/atom,
MgSi(HO$_{2}$)$_{2}$,4.9346000000000005,eV/atom,
Tl$_{3}$PbI$_{5}$,2.6249,eV/atom,
Mn(BiTe$_{2}$)$_{2}$,0.4754000000000005,eV/atom,
MnRe$_{2}$(HO$_{5}$)$_{2}$,0.39670000000000005,eV/atom,
Na$_{6}$PbO$_{5}$,1.0556,eV/atom,
As$_{4}$INO$_{6}$,0.0,eV/atom,
YPd,0.0,eV/atom,
Cs$_{2}$RuO$_{4}$,0.5834000000000001,eV/atom,
KHo(CO$_{3}$)$_{2}$,4.2582,eV/atom,
U$_{3}$Co$_{7}$B$_{2}$,0.0,eV/atom,
ReH$_{22}$C$_{4}$S$_{4}$N$_{8}$Cl$_{8}$O$_{3}$,1.4388,eV/atom,[Cl-].[Cl-].O=[Re](=O)([O-])Cl.O=[Re](=O)([O-])Cl.O=[Re](=O)(Cl)O.O=[Re](=O)(Cl)O.O=[Re](=O)(Cl)O.O=[Re](=O)(Cl)O.O.O.O.S(SC(N)=[NH2+])C(N)=[NH2+].S(SC(N)=[NH2+])C(N)=[NH2+]
Nd$_{3}$AlNiS$_{7}$,0.09640000000000004,eV/atom,
Dy$_{12}$C$_{6}$I$_{17}$,0.0,eV/atom,
NdHS$_{3}$O$_{11}$,5.4826999999999995,eV/atom,
Ca$_{2}$Al$_{2}$FeSi$_{4}$BHO$_{16}$,3.9301000000000004,eV/atom,
La$_{2}$CrO$_{6}$,2.1814,eV/atom,
PrTaO$_{4}$,3.5750999999999995,eV/atom,
Cs$_{7}$Cu$_{6}$F$_{19}$,0.4654,eV/atom,
Nb$_{5}$Ge$_{3}$,0.0,eV/atom,
Ho$_{7}$Co$_{6}$Sn$_{23}$,0.0,eV/atom,
DyAl$_{7}$Au$_{3}$,0.0,eV/atom,
FeH$_{12}$C$_{4}$NCl$_{4}$,1.4414,eV/atom,
LaCd,0.0,eV/atom,
KPdF$_{3}$,0.0,eV/atom,
Na$_{7}$In$_{3}$Se$_{8}$,1.1676,eV/atom,
ClO$_{2}$,0.964,eV/atom,
Ga$_{17}$Rh$_{10}$,0.0,eV/atom,
S(ClO)$_{2}$,3.6538,eV/atom,O=S(=O)(Cl)Cl
Eu(MnSb)$_{2}$,0.0,eV/atom,
RbZnB(PO$_{4}$)$_{2}$,5.0408,eV/atom,
EuMgSi,0.0,eV/atom,
Pr$_{3}$GaCo$_{3}$,0.0,eV/atom,
Ce(GeRh)$_{2}$,0.0,eV/atom,
Bi$_{2}$O$_{3}$,0.14900000000000002,eV/atom,
K$_{3}$AlH$_{6}$,2.1919,eV/atom,
CaMg$_{3}$(CO$_{3}$)$_{4}$,4.815300000000001,eV/atom,
Al$_{3}$Fe$_{2}$Si$_{3}$,0.0,eV/atom,
DySn$_{2}$,0.0,eV/atom,
NaV$_{3}$(FeO$_{4}$)$_{3}$,1.1299,eV/atom,
ICl,1.8269,eV/atom,
Ga$_{8}$Cu$_{3}$W$_{2}$,0.0,eV/atom,
CoBW,0.0,eV/atom,
K$_{3}$(PdO$_{2}$)$_{2}$,0.0,eV/atom,
BeAlB,0.0,eV/atom,
KAg$_{5}$S$_{3}$,0.6946999999999999,eV/atom,
Au(OF$_{3}$)$_{2}$,0.0,eV/atom,
Se,0.0,eV/atom,[Se]
MnS$_{2}$,0.0,eV/atom,
CsTiCl$_{3}$,0.0,eV/atom,
CsTiH$_{10}$C$_{4}$O$_{13}$,0.0,eV/atom,
Zn$_{2}$AsHO$_{5}$,1.9575,eV/atom,
NpPO$_{4}$F,0.0,eV/atom,
Ta$_{2}$VO$_{6}$,0.8707000000000003,eV/atom,
Cu$_{3}$Au,0.0,eV/atom,
Hf$_{9}$AsW$_{4}$,0.0,eV/atom,
Zn(PtO$_{2}$)$_{3}$,0.31130000000000013,eV/atom,
KB$_{2}$SbO$_{6}$,2.7659000000000002,eV/atom,
TlBiP$_{2}$S$_{7}$,2.2066,eV/atom,
Ti$_{4}$S$_{8}$Cl$_{6}$O,1.6012,eV/atom,
HoSi$_{2}$,0.0,eV/atom,
K$_{6}$BiH$_{3}$(Cl$_{2}$F)$_{4}$,4.1881,eV/atom,
PuPt$_{5}$,0.0,eV/atom,
Al$_{5}$Mo,0.0,eV/atom,
LiPF$_{6}$,7.5394,eV/atom,
Y(VSn)$_{6}$,0.0,eV/atom,
Sr$_{2}$Ge(S$_{2}$O$_{7}$)$_{4}$,3.4268,eV/atom,
Nd$_{2}$NCl$_{3}$,3.343,eV/atom,
HoSnAu,0.0,eV/atom,
Sb$_{4}$S$_{5}$Cl$_{2}$,1.8691999999999998,eV/atom,
LuBi$_{2}$IO$_{4}$,1.9810999999999996,eV/atom,
Yb(CdSb)$_{2}$,0.09539999999999971,eV/atom,
BiPd,0.0,eV/atom,
La$_{2}$P$_{2}$AuO,0.049099999999999255,eV/atom,
Rb$_{4}$SnO$_{4}$,2.1562,eV/atom,
Sr$_{2}$GaSbO$_{6}$,1.2913999999999999,eV/atom,
AlRe,0.0,eV/atom,
Ta$_{3}$Bi$_{7}$O$_{18}$,2.3299000000000003,eV/atom,
Ba$_{2}$ThCu$_{2}$Se$_{5}$,0.9245000000000005,eV/atom,
Cd$_{4}$SiS$_{6}$,1.434,eV/atom,
SmMg$_{2}$Ni$_{9}$,0.0,eV/atom,
KThP$_{3}$O$_{10}$,5.0528,eV/atom,
NdMn$_{2}$,0.0,eV/atom,
HgBr,2.2557,eV/atom,
ScCo$_{2}$,0.0,eV/atom,
Cs$_{2}$TeO$_{3}$,3.5313000000000003,eV/atom,
GdCBr,0.0,eV/atom,
Ba$_{9}$Fe$_{4}$S$_{15}$,0.046099999999999586,eV/atom,
BaSbTe$_{3}$,0.37429999999999986,eV/atom,
CsGeI$_{3}$,1.589,eV/atom,
YbMn$_{2}$O$_{5}$,0.0,eV/atom,
EuSn$_{3}$,0.0,eV/atom,
CuNi$_{2}$(PO$_{4}$)$_{2}$,0.5451999999999999,eV/atom,
LiB$_{13}$C$_{2}$,2.551,eV/atom,
VB$_{2}$,0.0,eV/atom,
RbVBr$_{3}$,0.6053000000000002,eV/atom,
CrHg$_{3}$(SO$_{2}$)$_{2}$,1.7105000000000001,eV/atom,
LaAg$_{2}$,0.0,eV/atom,
YTiGe,0.0,eV/atom,
Sr$_{11}$(MgSi$_{5}$)$_{2}$,0.0,eV/atom,
Y(BRh)$_{4}$,0.0,eV/atom,
Er(Al$_{3}$Ni)$_{3}$,0.0,eV/atom,
Al$_{12}$Re,0.0,eV/atom,
Cs$_{2}$AlP$_{3}$O$_{10}$,4.9085,eV/atom,
VAg$_{2}$(PO$_{4}$)$_{2}$,2.0121,eV/atom,
Sm$_{3}$FeO$_{6}$,2.9164,eV/atom,
Mn$_{2}$P$_{2}$H$_{7}$NO$_{10}$,0.7942999999999999,eV/atom,
LiH$_{6}$NO$_{6}$,3.2720000000000002,eV/atom,
La$_{2}$In,0.0,eV/atom,
PrNiP,0.0,eV/atom,
KAg$_{2}$SbS$_{4}$,0.5695999999999999,eV/atom,
Hg$_{3}$(PO$_{4}$)$_{2}$,1.4042999999999999,eV/atom,
P$_{4}$S$_{5}$,2.5252000000000003,eV/atom,
CdI$_{2}$,2.3516,eV/atom,
K$_{3}$Cr(CN)$_{6}$,1.8010000000000002,eV/atom,
CaB$_{4}$O$_{7}$,5.6352,eV/atom,
AgMo$_{3}$(PO$_{7}$)$_{2}$,1.9944000000000002,eV/atom,
KMo(PO$_{4}$)$_{2}$,2.4394,eV/atom,
PuO$_{2}$,0.0,eV/atom,
Sn$_{2}$Bi$_{2}$O$_{7}$,2.7096,eV/atom,
Pr(Al$_{2}$Cr)$_{4}$,0.0,eV/atom,
Cd$_{4}$P$_{2}$Cl$_{3}$,1.3805999999999998,eV/atom,