formula,Property band_gap,Property band_gap units,Property SMILES
ZnH$_{2}$(CO$_{2}$)$_{2}$,4.3891,eV/atom,
KZnAs,0.2762,eV/atom,
Cu$_{2}$Te$_{3}$O$_{8}$,0.0,eV/atom,
La(Mo$_{3}$Se$_{4}$)$_{2}$,0.0,eV/atom,
LiFe(MoO$_{4}$)$_{2}$,2.4998,eV/atom,
Pd,0.0,eV/atom,
Ca(GaSe$_{2}$)$_{2}$,2.0981,eV/atom,
Sr$_{3}$(GaN$_{2}$)$_{2}$,1.5856000000000003,eV/atom,
Na$_{6}$P$_{4}$W,1.2658,eV/atom,
NaTaO$_{3}$,2.2798000000000003,eV/atom,
Er(Al$_{2}$Mo)$_{2}$,0.0,eV/atom,
ThGe$_{2}$,0.0,eV/atom,
Ga$_{4}$Ni$_{3}$,0.0,eV/atom,
BiRhS,0.46770000000000067,eV/atom,
MnCdF$_{5}$,0.7610000000000001,eV/atom,
Ca(CoAs)$_{2}$,0.0,eV/atom,
YbClO,0.0,eV/atom,
K$_{3}$Ce(PS$_{4}$)$_{2}$,0.1660999999999997,eV/atom,
SmFeC$_{2}$,0.0,eV/atom,
LiTaO$_{3}$,3.7297000000000002,eV/atom,
La$_{5}$Ga$_{3}$,0.0,eV/atom,
YNi$_{5}$Ge$_{3}$,0.01529999999999987,eV/atom,
CrSi$_{2}$,0.36459999999999937,eV/atom,
NaPH$_{3}$NO$_{3}$,5.1072,eV/atom,
Na$_{5}$Al$_{3}$F$_{14}$,6.548500000000001,eV/atom,
PSN$_{9}$,3.2106,eV/atom,
CF$_{2}$,4.9033,eV/atom,FC(F)=C(F)C(F)(F)F
NaSc(BH$_{4}$)$_{4}$,4.8658,eV/atom,
GaMo$_{4}$CS$_{8}$,0.0,eV/atom,
P$_{4}$N$_{3}$Cl$_{11}$,2.4877,eV/atom,
YInPd,0.0,eV/atom,
DySnRh,0.0,eV/atom,
Sm(CuSi)$_{2}$,0.0,eV/atom,
As(CN)$_{3}$,4.4425,eV/atom,
Eu$_{3}$(AsPd)$_{4}$,0.0,eV/atom,
RbCrI$_{3}$,0.15979999999999972,eV/atom,
Ni$_{2}$PdSe$_{2}$,0.0,eV/atom,
Ba$_{3}$YIr$_{2}$O$_{9}$,0.017700000000000493,eV/atom,
Tl$_{3}$AsSe$_{3}$,0.8795999999999999,eV/atom,
Li$_{2}$CeSb$_{2}$,0.0,eV/atom,
Ba$_{7}$Sc$_{6}$Al$_{2}$O$_{19}$,2.4773,eV/atom,
Ba$_{2}$Er(CuO$_{2}$)$_{4}$,0.0,eV/atom,
Zr$_{6}$FeTe$_{2}$,0.0,eV/atom,
ErPO$_{4}$,5.919600000000001,eV/atom,
PWC$_{5}$Br$_{3}$O$_{5}$,2.0011,eV/atom,
Al(HO)$_{3}$,4.911300000000001,eV/atom,
CsRe$_{6}$Se$_{8}$I$_{3}$,1.1155,eV/atom,
K$_{2}$Pd(NO$_{2}$)$_{4}$,2.137,eV/atom,
LiAl(SiO$_{3}$)$_{2}$,5.368399999999999,eV/atom,
Y$_{3}$Ni$_{2}$,0.0,eV/atom,
NbBi$_{4}$ClO$_{8}$,1.3611,eV/atom,
FeP$_{4}$,1.0765000000000002,eV/atom,
CsY(PO$_{3}$)$_{4}$,5.5193,eV/atom,
Eu$_{2}$(MoO$_{4}$)$_{3}$,0.0,eV/atom,
K$_{6}$W$_{2}$N$_{4}$O$_{3}$,2.0547000000000004,eV/atom,
TaTeCl$_{9}$,2.7776,eV/atom,
SiS$_{2}$,3.3838,eV/atom,
FeH$_{16}$C$_{4}$S$_{4}$(N$_{4}$Cl)$_{2}$,0.3153999999999999,eV/atom,
Ca$_{9}$In(PO$_{4}$)$_{7}$,4.3214,eV/atom,
AlPS$_{4}$,2.837,eV/atom,
KBe(PO$_{3}$)$_{3}$,5.558199999999999,eV/atom,
LaMn$_{3}$Ni$_{2}$,0.0,eV/atom,
Zr$_{3}$Hg,0.0,eV/atom,
Rb$_{2}$LiGaF$_{6}$,6.1124,eV/atom,[Li+].[Rb+].[Rb+].O=C([O-])C1(F)C=C(O)C(F)(O)C(F)(OF)C1(F)F.O=C([O-])C1(F)C=C(O)C(F)(O)C(F)(OF)C1(F)F.O=C([O-])C1(F)C=C(O)C(F)(O)C(F)(OF)C1(F)F
BaPbO$_{3}$,0.3054000000000001,eV/atom,
Li$_{8}$PrO$_{6}$,0.0,eV/atom,
La$_{6}$Ge$_{11}$,0.0,eV/atom,
Mn$_{3}$(P$_{3}$Pd$_{10}$)$_{2}$,0,eV/atom,
GaAgSe$_{2}$,0.24839999999999995,eV/atom,
C$_{2}$F,2.0814,eV/atom,
Na$_{2}$LiB$_{5}$(PO$_{7}$)$_{2}$,5.4471,eV/atom,
Rb$_{3}$Er$_{3}$(PS$_{4}$)$_{4}$,2.2833999999999994,eV/atom,
CsLi(B$_{3}$O$_{5}$)$_{2}$,5.0852,eV/atom,
Na$_{14}$Mn$_{2}$O$_{9}$,0.8901999999999999,eV/atom,
HfNi$_{3}$,0.0,eV/atom,
YFe$_{5}$,0.0,eV/atom,
BiO,0.0,eV/atom,
Sr$_{2}$HoCu$_{3}$(PbO$_{4}$)$_{2}$,0.0,eV/atom,
CsErZnSe$_{3}$,2.4899999999999998,eV/atom,
P$_{2}$O$_{5}$,5.347200000000001,eV/atom,O=[P]
La$_{7}$Pd$_{3}$,0.0,eV/atom,
SrS$_{3}$,1.0703,eV/atom,
UGaRu,0.0,eV/atom,
TaV$_{2}$,0.0,eV/atom,
CdH$_{6}$(SO$_{4}$)$_{4}$,0.5212,eV/atom,
SrMgP$_{2}$O$_{7}$,5.3660000000000005,eV/atom,
LiH$_{20}$C$_{8}$BrO$_{4}$,4.6456,eV/atom,[Li+].[Br-].O(C)CCOC.O(C)CCOC
Yb$_{3}$PbO,0.0,eV/atom,
Sr$_{6}$Y$_{2}$Al$_{4}$O$_{15}$,3.9889,eV/atom,
NaTmGeO$_{4}$,3.6137,eV/atom,
Ce$_{3}$(Si$_{3}$Pd$_{10}$)$_{2}$,0.0,eV/atom,
Rb$_{2}$Cu$_{3}$H$_{2}$S$_{3}$O$_{14}$,0.28400000000000014,eV/atom,
Ba$_{6}$Pr$_{3}$I$_{19}$,1.0197000000000003,eV/atom,
Sr$_{2}$FeBrO$_{3}$,1.346,eV/atom,
GdRh$_{2}$,0.027899999999999814,eV/atom,
Cs$_{3}$Tm$_{2}$I$_{9}$,2.8920999999999997,eV/atom,
Sr$_{2}$CeO$_{4}$,2.2243000000000004,eV/atom,
CaAl$_{2}$Si$_{2}$(H$_{2}$O$_{5}$)$_{2}$,4.3611,eV/atom,
NdH$_{18}$C$_{3}$S$_{3}$(O$_{2}$F)$_{9}$,6.0476,eV/atom,
Dy$_{2}$Co$_{7}$B$_{3}$,0.0,eV/atom,
VP$_{3}$(HO$_{5}$)$_{2}$,2.2075000000000005,eV/atom,[V+3].O=P([O-])([O-])OP(=O)([O-])OP(=O)(O)O
ScSnPt,0.0,eV/atom,
Na$_{2}$TeSe$_{3}$,1.1915000000000002,eV/atom,
Th$_{5}$Pb$_{3}$,0.0,eV/atom,
TlCd(NO$_{2}$)$_{3}$,0.0,eV/atom,
Ba(CuSe)$_{2}$,0.37930000000000064,eV/atom,
CaMg(SiO$_{3}$)$_{2}$,4.6554,eV/atom,
Si$_{2}$NiSe$_{4}$,0.0,eV/atom,
Er$_{3}$(CuSi)$_{4}$,0.0,eV/atom,
Ce$_{2}$Ga$_{12}$Ni,0.0,eV/atom,
Na$_{2}$MgH$_{8}$(SO$_{6}$)$_{2}$,5.2316,eV/atom,
BaPr$_{2}$PdO$_{5}$,2.2470999999999997,eV/atom,
CsCu$_{3}$S$_{2}$,1.6845999999999999,eV/atom,
Ce$_{4}$Ru$_{3}$,0.0,eV/atom,
Re$_{3}$P$_{4}$,0.0,eV/atom,
SbSe(BrF$_{2}$)$_{3}$,2.5975,eV/atom,
KY(PO$_{3}$)$_{4}$,5.328399999999999,eV/atom,
RbCu$_{2}$Br$_{3}$,1.6366000000000003,eV/atom,
Sb$_{4}$Cl$_{2}$O$_{5}$,2.6435,eV/atom,
TmCoSi$_{2}$,0.0,eV/atom,
YbAlCu,0.0,eV/atom,
Sr$_{13}$Al$_{6}$Si$_{8}$O,0.0,eV/atom,
Ce(PO$_{3}$)$_{4}$,1.2294,eV/atom,
Na$_{2}$PtO$_{3}$,1.4807999999999995,eV/atom,
NaH$_{2}$SO$_{4}$,5.3052,eV/atom,
BaH$_{2}$Cl$_{2}$O,5.05,eV/atom,
H$_{9}$C$_{3}$SeSN$_{2}$Cl,3.4454,eV/atom,
Ce$_{2}$Zn$_{17}$,0.0,eV/atom,
K$_{2}$CuF$_{4}$,0.0,eV/atom,
BaH$_{2}$C$_{2}$O$_{5}$,3.1714,eV/atom,[Ba+2].O=C([O-])C(=O)[O-].O
NaH$_{2}$SeO$_{4}$,4.1128,eV/atom,
Ag$_{4}$Bi$_{2}$O$_{5}$,1.6389000000000005,eV/atom,
Cs(BCl)$_{6}$,3.2599,eV/atom,
Ca$_{2}$CdAs$_{2}$,0.8529999999999998,eV/atom,
HgH$_{24}$C$_{8}$(I$_{2}$N)$_{2}$,2.5974,eV/atom,
Ba$_{2}$TiS$_{4}$,2.0967999999999996,eV/atom,
CeScGe,0,eV/atom,
Ti$_{6}$Ge$_{5}$,0.0,eV/atom,
K$_{3}$PSe$_{16}$,1.0901,eV/atom,
Fe$_{6}$P$_{4}$H$_{17}$O$_{27}$,1.5183000000000002,eV/atom,
Cu$_{3}$AsO$_{7}$,0.10089999999999999,eV/atom,
CuH$_{16}$C$_{4}$(N$_{5}$O)$_{2}$,0.796,eV/atom,[Cu].O.O.N=C(N)NC(=N)N.N=C(N)NC(=N)N
NbPO$_{5}$,3.2355,eV/atom,
ThSi$_{3}$Ru,0.0,eV/atom,
Sr$_{2}$GaGeN,0.03059999999999974,eV/atom,
EuMgNi,0.0,eV/atom,
Tl$_{2}$PdSe$_{2}$,0.0,eV/atom,
CuWO$_{4}$,0.0,eV/atom,
ZrHg$_{3}$(SCl$_{3}$)$_{2}$,2.5574,eV/atom,
Rb$_{4}$LiH$_{3}$(SO$_{4}$)$_{4}$,5.0068,eV/atom,
TiMnO$_{3}$,2.3341,eV/atom,
SnH$_{2}$N$_{2}$O$_{3}$F$_{2}$,0.0,eV/atom,
TaMn$_{2}$,0.0,eV/atom,
NdGaCo,0.0,eV/atom,
HfN,0.0,eV/atom,
RbB,0.0,eV/atom,
TbCuSb$_{2}$,0.0,eV/atom,
Pr$_{2}$AlNi$_{2}$,0.0,eV/atom,
Cs$_{3}$Bi$_{2}$I$_{9}$,2.3423,eV/atom,
RbNiBr$_{3}$,0.47230000000000016,eV/atom,
NaClO$_{3}$,0.0,eV/atom,
K$_{2}$PrZr(PO$_{4}$)$_{3}$,4.4301,eV/atom,
K$_{2}$Mo$_{7}$O$_{20}$,0.0,eV/atom,
Sr$_{14}$MnSb$_{11}$,0.0,eV/atom,
Nb$_{4}$CoP,0.0,eV/atom,
K(FeAs)$_{2}$,0.0,eV/atom,
LaB$_{2}$Rh$_{3}$,0.0,eV/atom,
InBO$_{3}$,2.6517999999999997,eV/atom,
Rb$_{2}$ZnN$_{12}$,3.7716,eV/atom,
TlHg$_{3}$Sb$_{2}$Br$_{3}$,0.6482000000000001,eV/atom,
YbSnPd$_{2}$,0.0,eV/atom,
Mg$_{9}$Si$_{5}$,0.0,eV/atom,
Eu$_{2}$Si$_{2}$O$_{7}$,0.0,eV/atom,
LaCu(WO$_{4}$)$_{2}$,1.4321000000000002,eV/atom,
K$_{2}$Pb(SO$_{4}$)$_{2}$,2.5256,eV/atom,
K$_{2}$Ti(Si$_{2}$O$_{5}$)$_{3}$,3.2540000000000004,eV/atom,
Sm$_{2}$S$_{2}$O,2.4108,eV/atom,
Rb$_{2}$CO$_{3}$,3.2778,eV/atom,
LiNb$_{3}$O$_{8}$,2.9705000000000004,eV/atom,
CrGa$_{7}$P$_{8}$,0.0,eV/atom,
LiPrSn,0.0,eV/atom,
NaFeCl$_{4}$,1.2305,eV/atom,
Ba$_{2}$NiMoO$_{6}$,2.3916,eV/atom,
LaAlH$_{6}$,2.4764999999999997,eV/atom,
Cu$_{2}$PHO$_{5}$,0.0,eV/atom,
NiTe$_{2}$,0.32209999999999894,eV/atom,
P(CN)$_{3}$,4.4681,eV/atom,N#CP(C#N)C#N
Rb$_{4}$CuSi$_{2}$O$_{7}$,0.7242,eV/atom,
K$_{2}$OsNCl$_{5}$,1.6138000000000003,eV/atom,
KSrAs(H$_{4}$O$_{3}$)$_{4}$,4.3016,eV/atom,
NbNi$_{2}$Sn,0.0,eV/atom,
ZrGeMo,0.0,eV/atom,
Nd$_{5}$Ir$_{2}$,0.0,eV/atom,
EuCl$_{3}$,0.0,eV/atom,
Sr$_{3}$Li$_{4}$(GeN$_{3}$)$_{2}$,2.0534,eV/atom,
LiHoSn$_{2}$,0.0,eV/atom,
ErF$_{3}$,7.6163,eV/atom,
Mg$_{3}$(PO$_{4}$)$_{2}$,5.1758999999999995,eV/atom,
HoMoClO$_{4}$,2.7101,eV/atom,
EuAu$_{5}$,0.0,eV/atom,
Ag$_{3}$AuSe$_{2}$,0.026100000000000012,eV/atom,
TbB$_{2}$C,0.0,eV/atom,
SiO$_{2}$,4.8029,eV/atom,
La$_{5}$Ti$_{4}$O$_{15}$,0.0,eV/atom,
YH$_{7}$C$_{4}$O$_{11}$,3.5366999999999997,eV/atom,
LuS$_{2}$,0.0,eV/atom,
CaGeO$_{3}$,3.4743999999999997,eV/atom,
CuH$_{20}$S$_{2}$(NO$_{7}$)$_{2}$,0.4314,eV/atom,
Ti$_{5}$Si$_{4}$,0.0,eV/atom,
Hf$_{2}$Ga$_{3}$,0.0,eV/atom,
Sr(POs)$_{2}$,0.0,eV/atom,
Nb$_{2}$Cd$_{2}$O$_{7}$,1.7049999999999996,eV/atom,
Ca$_{9}$Cr(PO$_{4}$)$_{7}$,2.8836000000000004,eV/atom,
BaNd$_{2}$CuO$_{5}$,0.4194,eV/atom,
K$_{3}$ErSi$_{2}$O$_{7}$,3.7372000000000005,eV/atom,
CuSiO$_{3}$,0.10299999999999976,eV/atom,
In$_{2}$S$_{3}$,0.28000000000000025,eV/atom,
Nb$_{5}$As$_{3}$,0.0,eV/atom,
Sr$_{2}$GaCuSO$_{3}$,0.5552000000000001,eV/atom,
CeSi$_{3}$Rh,0.0,eV/atom,
K$_{2}$U$_{2}$WO$_{10}$,1.8912,eV/atom,
Nd$_{2}$Si$_{2}$O$_{7}$,5.0399,eV/atom,
NaNi$_{3}$O$_{8}$,0.0,eV/atom,
Sr$_{3}$Fe$_{2}$O$_{5}$,0.8077999999999999,eV/atom,
Hf$_{2}$Nb$_{3}$Ge$_{4}$,0.0,eV/atom,
CaIn$_{4}$Rh,0.0,eV/atom,
Nd$_{3}$GaN,0.0,eV/atom,
Li$_{4}$UO$_{5}$,2.0777,eV/atom,
Tl$_{2}$Ni(CN)$_{4}$,2.2822,eV/atom,
FeP$_{2}$PbO$_{7}$,3.8160000000000003,eV/atom,
Ce$_{15}$B$_{8}$N$_{25}$,0,eV/atom,
DySCl,2.7617000000000003,eV/atom,
Tb(FeSi)$_{2}$,0.0,eV/atom,
Er$_{6}$I$_{7}$,0.0,eV/atom,
NaBS$_{2}$,2.5622999999999996,eV/atom,
K$_{2}$AgSbS$_{4}$,1.0986999999999998,eV/atom,
Cr$_{8}$O$_{21}$,1.6002,eV/atom,
CsAsOF$_{4}$,3.8615,eV/atom,
NbH$_{8}$N$_{2}$O$_{2}$F$_{5}$,4.5788,eV/atom,
Nd(CuSi)$_{2}$,0.0,eV/atom,
Li$_{2}$AgBi,0.0,eV/atom,
SiO$_{2}$,5.4699,eV/atom,
RuOF$_{4}$,0.5205,eV/atom,
VSb$_{2}$O$_{5}$,2.5772,eV/atom,
CoMoH$_{2}$SeO$_{7}$,2.3374,eV/atom,
Li$_{2}$ZnSiO$_{4}$,3.7868999999999997,eV/atom,
LiNd$_{9}$Mo$_{16}$O$_{35}$,0.9283000000000001,eV/atom,
Sr$_{2}$ZnWO$_{6}$,3.516,eV/atom,
YbN,0.0,eV/atom,
Rb$_{3}$VS$_{4}$,1.6985999999999999,eV/atom,
NaAsS$_{2}$,1.7428000000000001,eV/atom,
LiHo(PO$_{3}$)$_{4}$,5.9286,eV/atom,
CsFeF$_{3}$,0.0,eV/atom,
Na$_{3}$AlP$_{2}$,1.3462999999999998,eV/atom,
CaFe$_{5}$As$_{3}$,0.0,eV/atom,
Zr$_{5}$Al$_{4}$,0.0,eV/atom,
Fe$_{13}$Co$_{3}$,0.0,eV/atom,
SmTl$_{3}$,0.0,eV/atom,
SbPbClO$_{2}$,1.9094000000000007,eV/atom,
K$_{5}$(AsPb)$_{3}$,0.8377999999999999,eV/atom,
Ho$_{4}$Ge$_{9}$Ir$_{13}$,0.0,eV/atom,
Tl$_{2}$CO$_{3}$,2.9022000000000006,eV/atom,
TbS$_{2}$,0.5519999999999996,eV/atom,
Mg$_{2}$BiAsO$_{6}$,3.3423999999999996,eV/atom,
CsAuF$_{4}$,2.3516,eV/atom,
K$_{11}$(In$_{2}$Bi$_{3}$)$_{3}$,0.03130000000000033,eV/atom,
Lu$_{2}$O$_{3}$,4.2763,eV/atom,
Tm(SiOs)$_{2}$,0.0,eV/atom,
U(SbO$_{3}$)$_{2}$,1.2887000000000004,eV/atom,
KLi$_{3}$Si$_{12}$(SnO$_{15}$)$_{2}$,4.4356,eV/atom,
Ba$_{2}$LaNbO$_{6}$,3.0242000000000004,eV/atom,
PH$_{7}$CN$_{3}$O$_{3}$F,5.0802,eV/atom,
LiAg,0.0,eV/atom,
CeZrF$_{7}$,0.3047000000000004,eV/atom,
EuSi$_{6}$,0.011400000000000077,eV/atom,
NaLi$_{3}$GeO$_{4}$,3.6606,eV/atom,
Lu$_{2}$Ga$_{3}$Co,0.0,eV/atom,
NdAl$_{4}$,0.0,eV/atom,
LaIn$_{3}$,0.0,eV/atom,
Sm$_{2}$CuAs$_{3}$O,0.0,eV/atom,
RbMnAs,0.0,eV/atom,
Li$_{2}$Mo$_{4}$O$_{13}$,2.3953,eV/atom,
K$_{4}$MnH$_{6}$(S$_{2}$O$_{9}$)$_{2}$,4.6259,eV/atom,
UGa$_{5}$Pt,0.0,eV/atom,
K$_{4}$MnBr$_{6}$,2.3093,eV/atom,
Sr$_{3}$CdO$_{4}$,1.1647,eV/atom,
Tb$_{2}$Co$_{3}$Si$_{5}$,0.0,eV/atom,
CoO$_{2}$,1.1944000000000001,eV/atom,
Ho(Co$_{2}$B)$_{6}$,0.0,eV/atom,
RuCl(OF$_{3}$)$_{2}$,0.5690999999999999,eV/atom,
CaSiO$_{3}$,3.5145999999999997,eV/atom,
Hg$_{2}$SeO$_{3}$,2.1827,eV/atom,
Sb$_{2}$(KrF$_{4}$)$_{5}$,1.1692,eV/atom,
Ta$_{2}$AgF$_{12}$,0.7143000000000002,eV/atom,
HoAsO$_{4}$,3.609,eV/atom,
Li$_{17}$(AgSn$_{2}$)$_{3}$,0.0,eV/atom,
Er(Mo$_{3}$S$_{4}$)$_{2}$,0.0,eV/atom,
LiCa$_{2}$Si$_{3}$,0.0,eV/atom,
TcS$_{2}$,1.1885000000000003,eV/atom,
TeMoCl$_{7}$O,2.4981999999999998,eV/atom,
HoCuSi,0.0,eV/atom,
CuP$_{4}$O$_{11}$,0.5740000000000001,eV/atom,
Ba$_{2}$TeO,1.7805,eV/atom,
LuO$_{3}$,1.48,eV/atom,
Ba$_{3}$MgNb$_{2}$O$_{9}$,2.6479999999999997,eV/atom,
CrCuS$_{2}$,0.3433999999999999,eV/atom,
ScAu$_{2}$,0.0,eV/atom,
SrSbF$_{5}$,4.7617,eV/atom,
AlSb,0.02210000000000001,eV/atom,
NdCuSn,0.0,eV/atom,
RbAsO$_{2}$,3.8821,eV/atom,
YbAsS,0.0,eV/atom,
HfSnPt,0.0,eV/atom,
UTe$_{3}$Pb$_{2}$O$_{11}$,1.7889000000000004,eV/atom,
Al$_{3}$BN$_{4}$,3.359,eV/atom,
U(CoSi)$_{2}$,0.0,eV/atom,
S$_{3}$(NO)$_{2}$,1.6922,eV/atom,
Mg$_{2}$ZnB$_{2}$Ir$_{5}$,0.0,eV/atom,
GdH$_{6}$C$_{6}$Cl$_{3}$(O$_{3}$F$_{2}$)$_{3}$,3.1337,eV/atom,
Na$_{5}$FeHO$_{4}$,1.2346,eV/atom,
Sc$_{5}$(Co$_{2}$Si$_{5}$)$_{2}$,0.0,eV/atom,
GdCuAs$_{2}$,0.04320000000000057,eV/atom,
LuNiP,0.0,eV/atom,
Ta(NiTe)$_{2}$,0.0,eV/atom,
Gd$_{4}$Si$_{2}$Se$_{3}$O$_{7}$,0.9640999999999993,eV/atom,
Y$_{12}$Ni$_{6}$Pb,0.0,eV/atom,
LaCoGe$_{2}$,0.0,eV/atom,
CsIO$_{3}$,3.0911999999999997,eV/atom,
Yb$_{2}$Sn$_{5}$Pt$_{3}$,0.0,eV/atom,
LuGe$_{2}$,0.0,eV/atom,
ScInCu$_{4}$,0.0,eV/atom,
AsCSCl$_{2}$F$_{9}$,3.8103,eV/atom,
Ag$_{3}$Pt,0.0,eV/atom,
Hf$_{3}$Cd$_{3}$AgF$_{20}$,0.0,eV/atom,
POs$_{6}$C$_{18}$ClO$_{18}$,2.2333,eV/atom,
ThZrF$_{8}$,5.6773,eV/atom,
Sr$_{4}$Ru$_{3}$O$_{10}$,0.0,eV/atom,
Ba$_{2}$In,0.0,eV/atom,
Ce(AsRh)$_{2}$,0.0,eV/atom,
Pr$_{3}$(Ge$_{3}$Pt$_{2}$)$_{2}$,0.0,eV/atom,
Sr$_{6}$Mg$_{7}$H$_{26}$,2.9736000000000002,eV/atom,
Cd$_{5}$P$_{3}$ClO$_{12}$,2.1605999999999996,eV/atom,
CrP(HO)$_{5}$,2.8008,eV/atom,
Li$_{2}$CdGeO$_{4}$,2.455,eV/atom,
HoPd$_{3}$,0.0,eV/atom,
SbO$_{2}$,0.0,eV/atom,
EuAl$_{2}$,0.0,eV/atom,
Sm(C$_{2}$N$_{3}$)$_{3}$,3.5748,eV/atom,[Sm+3].N#C[N-]C#N.N#C[N-]C#N.N#C[N-]C#N
YH$_{8}$C$_{2}$S$_{2}$NO$_{9}$,1.4786000000000001,eV/atom,
NaGa$_{3}$Se$_{5}$,1.5028,eV/atom,
InCu(MoO$_{4}$)$_{2}$,0.5448000000000004,eV/atom,
ErCdGa,0.0,eV/atom,
Mn$_{2}$Cu$_{3}$H$_{24}$(OF)$_{12}$,0.6532,eV/atom,
FeTe$_{6}$O$_{13}$,2.3469999999999995,eV/atom,
U$_{2}$FeS$_{5}$,5.000000000006111E-4,eV/atom,
Er$_{3}$SiSe$_{2}$O$_{10}$F,4.0849,eV/atom,
SbH$_{3}$C$_{2}$(O$_{2}$F$_{3}$)$_{2}$,3.1772,eV/atom,O=C(O)[C+](O)O.F[Sb-](F)(F)(F)(F)F
CoH$_{18}$C$_{4}$N$_{8}$(ClO)$_{4}$,2.763,eV/atom,
KIn$_{5}$S$_{8}$,1.2568000000000001,eV/atom,
ZrSiTe,0.0,eV/atom,
ScRe$_{4}$H$_{8}$NO$_{20}$,0.0,eV/atom,
TmCrO$_{3}$,2.5329,eV/atom,
Tl$_{2}$SnS$_{3}$,0.9423999999999997,eV/atom,
Li$_{5}$B(SO$_{4}$)$_{4}$,6.108199999999999,eV/atom,
YbCu$_{4}$Au,0.0,eV/atom,
Ba$_{3}$Al$_{2}$F$_{12}$,6.8714,eV/atom,
Li$_{2}$U$_{3}$V$_{2}$O$_{15}$,2.2727,eV/atom,
Ba(SbPd)$_{2}$,0.0,eV/atom,
MoC$_{3}$S$_{2}$Cl$_{7}$O,1.9623000000000002,eV/atom,
Ca$_{2}$P$_{2}$O$_{7}$,5.5138,eV/atom,
PrMn$_{2}$,0.0,eV/atom,
PPd$_{6}$,0.0,eV/atom,
CeCuTeO,0.0,eV/atom,
RbHoHS$_{2}$O$_{9}$,0.2238,eV/atom,
AgHg$_{2}$AsO$_{4}$,0.7385999999999999,eV/atom,
RbHS,3.0784000000000002,eV/atom,
Cs$_{4}$BiSbCl$_{12}$,0.5768,eV/atom,
Mn$_{2}$H$_{2}$SO$_{6}$,2.8085999999999998,eV/atom,
NpGa$_{4}$,0.0,eV/atom,
Yb(Al$_{4}$Co)$_{2}$,0.0,eV/atom,
CuH$_{3}$C$_{2}$NO$_{4}$,0.2782,eV/atom,
Mn$_{3}$Al$_{10}$,0.0,eV/atom,
ZrTi(PbO$_{3}$)$_{2}$,1.9825,eV/atom,
Sr$_{2}$MnO$_{4}$,0.023700000000000276,eV/atom,
Sr$_{2}$CuF$_{6}$,0.0232,eV/atom,
Mg$_{2}$P$_{2}$O$_{7}$,5.3203,eV/atom,
K$_{3}$Bi$_{2}$(PO$_{4}$)$_{3}$,3.7815999999999996,eV/atom,
Ba$_{3}$Zr$_{2}$S$_{7}$,0.5038,eV/atom,
HfVF$_{6}$,3.221,eV/atom,
LiRh$_{3}$,0.0,eV/atom,
CrCuH$_{18}$N$_{6}$Cl$_{5}$,0.5223,eV/atom,
Co$_{2}$AsClO$_{4}$,2.6492000000000004,eV/atom,
K$_{2}$NbAgS$_{4}$,2.1653,eV/atom,
Sc$_{2}$MnSn,0.0,eV/atom,
HfAlPt,0.0,eV/atom,
Rb$_{2}$SrP$_{2}$O$_{7}$,4.7092,eV/atom,
ZrVP,0.0,eV/atom,
PdCl$_{2}$,0.7861999999999999,eV/atom,
La$_{2}$NiO$_{4}$,1.5036000000000005,eV/atom,
LiPt,0.0,eV/atom,
HS$_{9}$N,2.3535,eV/atom,
Rb$_{2}$Cd(PSe$_{3}$)$_{2}$,1.7961,eV/atom,
CaTaAlO$_{5}$,3.9264,eV/atom,
CeZnPd,0.0,eV/atom,
DyAgTe$_{2}$,0.9018000000000006,eV/atom,
CdPd(CN)$_{6}$,4.0255,eV/atom,
Cs$_{3}$SbO$_{3}$,3.0838,eV/atom,
Ba$_{5}$(TiN$_{3}$)$_{2}$,1.4777999999999998,eV/atom,
KNa$_{4}$SnSb$_{3}$,0.4226000000000001,eV/atom,
Zn$_{3}$P$_{2}$H$_{2}$O$_{9}$,3.3726000000000003,eV/atom,
Cs$_{2}$Ni$_{3}$S$_{4}$,0.8785999999999996,eV/atom,
Na$_{2}$CoP$_{2}$O$_{7}$,3.0335,eV/atom,
CaAu$_{5}$,0.0,eV/atom,
SmOF,4.6648000000000005,eV/atom,
Rb$_{2}$FeC$_{5}$N$_{6}$O,2.7914,eV/atom,
Zr$_{2}$Zn,0.0,eV/atom,
TeI$_{4}$,1.7073,eV/atom,
Ca$_{5}$(InSb$_{3}$)$_{2}$,0.22820000000000018,eV/atom,
RbLi$_{2}$O$_{3}$,0.0,eV/atom,
NdPO$_{4}$,5.675000000000001,eV/atom,
AlVMoO$_{7}$,2.3303,eV/atom,
Sc$_{3}$NiC$_{4}$,0.0,eV/atom,
LuTaO$_{4}$,4.3138,eV/atom,
Ba$_{3}$SrTa$_{2}$O$_{9}$,4.0225,eV/atom,
Ho$_{3}$(CuSn)$_{4}$,0.0,eV/atom,
CoAsS,0.0,eV/atom,
PrCl$_{3}$,4.3439,eV/atom,
Pd(NCl$_{2}$)$_{2}$,0.0,eV/atom,
Zn$_{3}$CrSe$_{4}$,0.0,eV/atom,
Ba$_{2}$HoReO$_{6}$,0.0,eV/atom,
Nd$_{23}$Mg$_{4}$Rh$_{7}$,0.0,eV/atom,
ZrTe$_{3}$O$_{8}$,3.6712,eV/atom,
Ce$_{2}$Ga$_{2}$Co$_{15}$,0.0,eV/atom,
Sr$_{2}$Ge$_{2}$Se$_{5}$,1.1252,eV/atom,
Ho$_{5}$Rh$_{3}$,0.0,eV/atom,
P,0.0,eV/atom,[P]
DyCoGe,0.0,eV/atom,
GdAsS,0.0,eV/atom,
Sr$_{2}$YbMoO$_{6}$,2.5199999999999996,eV/atom,
CePIr,0.0,eV/atom,
UN,0.0,eV/atom,
MnGe$_{4}$H$_{24}$C$_{8}$(S$_{5}$N)$_{2}$,1.4138000000000002,eV/atom,
Nb$_{5}$Te$_{4}$,0.0,eV/atom,
BaNa$_{2}$Mg(PO$_{4}$)$_{2}$,5.0412,eV/atom,
Tl$_{3}$VS$_{4}$,1.9533,eV/atom,
SrNi$_{5}$P$_{3}$,0,eV/atom,
Yb(PO$_{3}$)$_{3}$,0.0,eV/atom,
MgPHO$_{9}$,0.0,eV/atom,[Mg+2].O=P([O-])([O-])O.O.O.O.O.O.O
Ba$_{3}$CaRu$_{2}$O$_{9}$,0.07560000000000011,eV/atom,
La$_{3}$(ReO$_{5}$)$_{2}$,0.0,eV/atom,
LaCuSe$_{2}$,0.8799000000000001,eV/atom,
K$_{2}$CoH$_{12}$(SO$_{7}$)$_{2}$,3.1294,eV/atom,
Sb$_{3}$WC$_{6}$O$_{6}$F$_{17}$,2.888,eV/atom,
KMnVO$_{4}$,2.5793999999999997,eV/atom,
Ba$_{3}$InSe$_{4}$Cl,2.3186,eV/atom,
LiI,4.222,eV/atom,
Nb$_{6}$Co$_{16}$Si$_{7}$,0.0,eV/atom,
Nb$_{4}$GaSe$_{8}$,0.0,eV/atom,
VPbClO$_{3}$,2.3699000000000003,eV/atom,
NbCrF$_{6}$,0.0,eV/atom,
ZrNi(OF)$_{6}$,0.0,eV/atom,
Sr(MnSb)$_{2}$,0.0,eV/atom,
Al$_{2}$(MoO$_{4}$)$_{3}$,3.783,eV/atom,
KBiF$_{4}$,3.2279,eV/atom,
Al$_{2}$B$_{2}$Ru$_{3}$,0.0,eV/atom,
CuI,0.9427000000000003,eV/atom,
MoO$_{2}$,0.0,eV/atom,
Ce$_{11}$O$_{20}$,7.999999999999119E-4,eV/atom,
BaBiO$_{3}$,0.0,eV/atom,
ZnB$_{3}$Ir$_{4}$,0.0,eV/atom,
Cd$_{2}$H$_{3}$ClO$_{3}$,2.4219,eV/atom,
Cs$_{6}$InAs$_{3}$,0.5004999999999997,eV/atom,
PrZr$_{2}$F$_{11}$,5.7572,eV/atom,
SmMnB$_{4}$,0.0,eV/atom,
Na$_{3}$Zn(BO$_{2}$)$_{5}$,4.2757,eV/atom,
Ba$_{2}$LiReN$_{4}$,1.7902,eV/atom,
Sc(ReO$_{3}$)$_{2}$,0.0,eV/atom,
Dy(SiPt)$_{2}$,0.0,eV/atom,
Na$_{5}$ReO$_{6}$,2.2527999999999997,eV/atom,
Cs$_{3}$TaS$_{4}$,2.983,eV/atom,
Mg$_{3}$Ir,0.0,eV/atom,
Zr$_{5}$Sb$_{4}$,0.0,eV/atom,
LuCd,0.04339999999999966,eV/atom,
Nd$_{2}$Co$_{17}$,0.0,eV/atom,
AgPS$_{3}$,1.3119999999999998,eV/atom,
Si,1.1825999999999999,eV/atom,
Na$_{2}$Si(H$_{4}$O$_{3}$)$_{3}$,4.6935,eV/atom,
KRb$_{2}$ScF$_{6}$,6.5976,eV/atom,
Na$_{3}$AsS$_{3}$,2.5165,eV/atom,
Sc$_{3}$P$_{2}$,0.0,eV/atom,
BaPdCl$_{4}$,1.2578,eV/atom,
PrSbPt,0.0,eV/atom,
KNb(AgSe$_{2}$)$_{2}$,1.4594999999999998,eV/atom,
Bi$_{2}$O$_{3}$,2.1865999999999994,eV/atom,
Pr$_{2}$Al$_{3}$Co$_{14}$,0.0,eV/atom,
Sr$_{2}$Bi,0.0,eV/atom,
OsC$_{2}$,0.04699999999999882,eV/atom,
Cs(AsRh)$_{2}$,0.0,eV/atom,
BaCeN$_{2}$,0.6481000000000003,eV/atom,
BaSiO$_{3}$,4.5344999999999995,eV/atom,
BCl,3.3184,eV/atom,
NaB,0.0,eV/atom,
Ca$_{4}$Al$_{6}$SO$_{16}$,4.4663,eV/atom,
ThCr(IO$_{5}$)$_{2}$,2.7038,eV/atom,
Sc(CoGe)$_{6}$,0.0,eV/atom,
BaMgH$_{4}$,2.3007,eV/atom,
Hf(Se$_{2}$Cl$_{3}$)$_{2}$,1.3131,eV/atom,
Ga$_{2}$P$_{3}$H$_{11}$O$_{13}$,5.234,eV/atom,
MnSiRh,0.0,eV/atom,
AlVCo$_{2}$,0.0,eV/atom,
CdAg$_{4}$Ge$_{2}$S$_{7}$,0.6329000000000002,eV/atom,
Te$_{2}$AsCNF$_{6}$,1.5716,eV/atom,
K$_{2}$Zn$_{3}$(P$_{2}$O$_{7}$)$_{2}$,4.2078999999999995,eV/atom,
CuSeO$_{3}$,0.021500000000000075,eV/atom,
K$_{2}$Be(CO$_{2}$)$_{4}$,3.4257,eV/atom,
Hg$_{3}$(SeI)$_{2}$,1.1701000000000001,eV/atom,
Er(NiGe)$_{2}$,0.0,eV/atom,
Nd$_{2}$WO$_{6}$,3.1133,eV/atom,
UGa$_{3}$Pd$_{2}$,0.0,eV/atom,
CuAs$_{4}$S$_{3}$Cl,1.6216999999999997,eV/atom,
RbLi$_{2}$(IO$_{3}$)$_{3}$,3.8184,eV/atom,
Nd$_{4}$PdO$_{7}$,1.0861,eV/atom,
LaFeSi$_{2}$,0.0,eV/atom,
Tb$_{3}$GaO$_{6}$,3.6053999999999995,eV/atom,[Tb+3].[Tb+3].[Tb+3].O=C([O-])C12OC2C3(O)OC3(O)C(O)=C1.O=C([O-])C12OC2C3(O)OC3(O)C(O)=C1.O=C([O-])C12OC2C3(O)OC3(O)C(O)=C1.O=C([O-])C12OC2C3(O)OC3(O)C(O)=C1.O=C([O-])C12OC2C3(O)OC3(O)C(O)=C1.O=C([O-])C12OC2C3(O)OC3(O)C(O)=C1.O=C([O-])C12OC2C3(O)OC3(O)C(O)=C1.O=C([O-])C12OC2C3(O)OC3(O)C(O)=C1.O=C([O-])C12OC2C3(O)OC3(O)C(O)=C1
Yb$_{11}$InSb$_{9}$,0.6565000000000003,eV/atom,
La$_{3}$AgGeS$_{7}$,1.9759000000000002,eV/atom,
GaAg,0.0,eV/atom,
UNi$_{2}$Sn,0.0,eV/atom,