formula,Property band_gap,Property band_gap units,Property SMILES
Hf(TeCl)$_{6}$,1.0245000000000002,eV/atom,
Rb$_{2}$MgH$_{4}$,3.8434,eV/atom,
SiC,2.0052000000000003,eV/atom,
Yb(Al$_{2}$Mo)$_{2}$,0.0,eV/atom,
Sc(CrGe)$_{6}$,0.0,eV/atom,
Y$_{4}$Ga$_{12}$Pt,0.0,eV/atom,
UCr$_{5}$P$_{3}$,0.0,eV/atom,
Mo$_{2}$P$_{3}$Pb$_{2}$BrO$_{15}$,0.0,eV/atom,
Rb$_{2}$Cd$_{3}$H$_{6}$S$_{3}$O$_{16}$,3.2717,eV/atom,
K$_{2}$PAu,0.9503999999999999,eV/atom,
NdTaO$_{4}$,3.6099,eV/atom,
Ti$_{3}$Hg,0.0,eV/atom,
HgTe(H$_{2}$O$_{3}$)$_{2}$,2.0783,eV/atom,
CoSI,0.0,eV/atom,
U$_{2}$W$_{2}$C$_{3}$,0.0,eV/atom,
Sm$_{2}$CoGe$_{2}$,0.0,eV/atom,
La$_{4}$Rh$_{3}$,0.032399999999999984,eV/atom,
SiO$_{2}$,0.8752,eV/atom,
Zr$_{4}$Pd$_{2}$O,0.0,eV/atom,
Y$_{2}$Cu$_{2}$O$_{5}$,0.09100000000000019,eV/atom,
LiInI$_{4}$,2.2465,eV/atom,
Nb$_{3}$CoS$_{6}$,0.0,eV/atom,
ErZnPd,0.0,eV/atom,
CsLiF$_{2}$,6.2744,eV/atom,
SrSnHg,0.0,eV/atom,
Li$_{3}$BiO$_{4}$,1.0578999999999996,eV/atom,
Li$_{15}$Ge$_{4}$,0.0,eV/atom,
Pr(BIr)$_{2}$,0.0,eV/atom,
BaSc$_{3}$AgS$_{6}$,1.5944999999999996,eV/atom,
BaYbCo$_{4}$O$_{7}$,0.4131,eV/atom,
Co(C$_{2}$N$_{3}$)$_{2}$,0.0,eV/atom,[Co+2].N#C[N-]C#N.N#C[N-]C#N
In(TeMo)$_{3}$,0.0,eV/atom,
Tm$_{2}$MoO$_{6}$,2.1664,eV/atom,
Sn$_{2}$OF$_{2}$,2.6708000000000003,eV/atom,
PrInNi$_{2}$,0.0,eV/atom,
Ce(BO$_{2}$)$_{3}$,0.2538999999999998,eV/atom,
Ti(AlCl$_{4}$)$_{2}$,0.055199999999999694,eV/atom,
LiCaGaF$_{6}$,6.4003,eV/atom,[Li+].[Ca+2].O=C([O-])C1(F)C=C(O)C(F)(O)C(F)(OF)C1(F)F.O=C([O-])C1(F)C=C(O)C(F)(O)C(F)(OF)C1(F)F.O=C([O-])C1(F)C=C(O)C(F)(O)C(F)(OF)C1(F)F
CsTa(BO$_{3}$)$_{2}$,3.4027,eV/atom,
TlFeS$_{2}$,0.0,eV/atom,
FeSeO$_{5}$,0.2905,eV/atom,
PbSe,1.1181000000000005,eV/atom,
NaSr$_{2}$IO$_{6}$,2.5606999999999998,eV/atom,
BaErAgSe$_{3}$,1.4493,eV/atom,
CsInS$_{2}$,2.1704,eV/atom,
PaAs$_{2}$,0.0,eV/atom,
Mg(ScSe$_{2}$)$_{2}$,1.0918,eV/atom,
Sc$_{3}$InC,0.0,eV/atom,
Na$_{2}$CO$_{3}$,3.3474000000000004,eV/atom,
Li$_{4}$SiO$_{4}$,4.9532,eV/atom,
Ba$_{6}$Na$_{2}$V$_{2}$Ru$_{2}$O$_{17}$,0.41449999999999987,eV/atom,
ThO$_{2}$,3.4895000000000005,eV/atom,
ErNiBC,0.0,eV/atom,
Ba$_{3}$Sc(BO$_{2}$)$_{9}$,5.2789,eV/atom,
H$_{5}$CNO$_{3}$,5.1511,eV/atom,O=C([O-])O.[NH4+]
KBa$_{4}$Bi$_{3}$O,0.7284000000000002,eV/atom,
CuAuSe$_{4}$,0.0,eV/atom,
SrNi$_{5}$As$_{3}$,0.0,eV/atom,
YbSi$_{2}$Ni,0.0,eV/atom,
Be,0.0,eV/atom,
Cr$_{2}$P$_{4}$O$_{13}$,2.8044999999999995,eV/atom,[Cr+6].O=P([O-])([O-])OP(=O)([O-])OP(=O)([O-])OP(=O)([O-])[O-]
Sm$_{2}$Se$_{3}$,0.3125,eV/atom,
CuH$_{4}$(IO$_{4}$)$_{2}$,0.5463,eV/atom,
LiCd$_{4}$Ge$_{5}$HO$_{15}$,1.8714,eV/atom,
KNdS$_{2}$,2.2595,eV/atom,
Al$_{3}$(Co$_{10}$B$_{3}$)$_{2}$,0.0,eV/atom,
K$_{2}$Cd(AuS)$_{4}$,2.031,eV/atom,
Hg$_{19}$(As$_{5}$Br$_{9}$)$_{2}$,1.0826,eV/atom,
K$_{3}$(FeSe$_{2}$)$_{2}$,0.015200000000000102,eV/atom,
AsS,2.0899,eV/atom,
BH$_{10}$C$_{2}$N$_{5}$O$_{3}$,4.5377,eV/atom,
Sc$_{2}$In,0.0,eV/atom,
Sb$_{2}$BrF$_{15}$,2.9699999999999998,eV/atom,
Na$_{2}$ThF$_{6}$,6.4627,eV/atom,
Sr(FeAs)$_{2}$,0.0,eV/atom,
HoCu$_{2}$,0.0,eV/atom,
Mg$_{3}$As$_{2}$,1.431,eV/atom,
CaCu$_{3}$(SnO$_{3}$)$_{4}$,0.5281000000000002,eV/atom,
U$_{2}$SN$_{2}$,0.0,eV/atom,
HoIr$_{2}$,0.0,eV/atom,
Ag$_{5}$Hg$_{4}$P$_{8}$Cl$_{5}$,0.9769999999999999,eV/atom,
LaMg$_{12}$,0.0,eV/atom,
TlAg$_{3}$Te$_{2}$,0.0,eV/atom,
Ce$_{3}$(Al$_{3}$Ru)$_{4}$,0.0,eV/atom,
Eu(SiIr)$_{2}$,0.0,eV/atom,
LaScO$_{3}$,3.8831000000000007,eV/atom,
Gd(CoSi)$_{2}$,0.0,eV/atom,
Nd$_{2}$ScSi$_{2}$,0.0,eV/atom,
LiRhO$_{2}$,1.3800000000000003,eV/atom,
ErCuTe$_{2}$ClO$_{6}$,0.39270000000000005,eV/atom,
Na$_{2}$Mn$_{3}$O$_{7}$,1.4056999999999997,eV/atom,
GaS,1.8596,eV/atom,
Pa,0.0,eV/atom,
SmH$_{8}$S$_{3}$N$_{3}$O$_{10}$,5.3137,eV/atom,[Sm+3].O=S(=O)([O-])N.O=S(=O)([O-])N.O=S(=O)([O-])N.O.O
Y$_{2}$Co$_{17}$,0.0,eV/atom,
TlGaO$_{2}$,2.1553,eV/atom,
Nd(Mo$_{3}$S$_{4}$)$_{2}$,0.0,eV/atom,
PrSnPt,0.0,eV/atom,
TiCuNi$_{2}$,0.0,eV/atom,
Tm$_{2}$Cu(B$_{2}$O$_{5}$)$_{2}$,0.6612999999999998,eV/atom,
FeP$_{2}$,0.4338999999999995,eV/atom,
RbP,0.0,eV/atom,
NaH$_{2}$CSO$_{4}$F$_{3}$,5.766400000000001,eV/atom,
Na$_{2}$AlFeF$_{7}$,3.3639,eV/atom,
LaErS$_{3}$,0.8793999999999995,eV/atom,
Dy(Al$_{2}$Cu)$_{4}$,0.0,eV/atom,
ThCrB$_{4}$,0.0,eV/atom,
Ca$_{2}$Si$_{5}$N$_{8}$,3.6460999999999997,eV/atom,
Pr$_{2}$CrS$_{4}$,0.0,eV/atom,
BaVO$_{3}$,0.0,eV/atom,
Mg$_{2}$BiPO$_{6}$,3.6229999999999998,eV/atom,
ZnB$_{4}$O$_{7}$,4.6601,eV/atom,
V$_{6}$O$_{13}$,0,eV/atom,
Na$_{2}$Ti$_{6}$O$_{13}$,2.9166999999999996,eV/atom,
MoNCl$_{3}$,1.6727,eV/atom,
In$_{7}$Cl$_{9}$,2.1903000000000006,eV/atom,
LiFeO$_{2}$,1.3005,eV/atom,
Cs$_{3}$P$_{6}$N$_{11}$,4.087899999999999,eV/atom,
InH$_{4}$NCl$_{4}$,3.6289999999999996,eV/atom,
Nd$_{4}$In$_{5}$S$_{13}$,0.0,eV/atom,
Eu(BIr)$_{2}$,0.012600000000000833,eV/atom,
Sn(NO$_{3}$)$_{4}$,3.6378,eV/atom,
KCu$_{4}$(AsO$_{4}$)$_{3}$,0.19380000000000042,eV/atom,
DyPd,0.0,eV/atom,
LiHoSe$_{2}$,1.5729000000000002,eV/atom,
Sm$_{3}$OsO$_{7}$,0.0,eV/atom,
Ca(AsPd)$_{2}$,0.0,eV/atom,
CrFeP,0.0,eV/atom,
GdInCu$_{4}$,0.07370000000000054,eV/atom,
KSn$_{2}$,0.0,eV/atom,
Li$_{3}$AuS$_{2}$,2.0985,eV/atom,
Ca$_{5}$Bi$_{3}$,0.0,eV/atom,
CdI$_{2}$,2.3667,eV/atom,
Ce$_{3}$MnBi$_{5}$,0.0,eV/atom,
RbNaCr$_{2}$O$_{7}$,2.6638,eV/atom,
Li$_{2}$Cu$_{2}$TeO$_{6}$,0.07030000000000003,eV/atom,
Hf$_{3}$(Cu$_{2}$Si)$_{2}$,0.0,eV/atom,
LiHo$_{3}$Ge$_{2}$(O$_{4}$F)$_{2}$,4.1635,eV/atom,
HfAs$_{2}$,0.0,eV/atom,
Yb$_{2}$Ni$_{12}$P$_{7}$,0.0,eV/atom,
Tm$_{2}$Te$_{5}$,0.0,eV/atom,
CdSe,0.56,eV/atom,
Sr$_{3}$Pt$_{2}$,0.0,eV/atom,
Ba$_{6}$Mg$_{11}$F$_{34}$,6.5470999999999995,eV/atom,
Li$_{2}$Eu$_{5}$O$_{8}$,0.0,eV/atom,
YbCd$_{2}$,0.0,eV/atom,
Cu$_{3}$As$_{4}$,0.0,eV/atom,
CdSb$_{2}$Se$_{3}$Br$_{2}$,1.1147,eV/atom,
ZnP$_{2}$PbO$_{7}$,4.2572,eV/atom,
Rb$_{6}$Te$_{2}$O$_{9}$,0.8486999999999998,eV/atom,
Er$_{2}$Sn$_{5}$,0.0,eV/atom,
LaFe$_{12}$O$_{19}$,0.9630000000000001,eV/atom,
BaTiO$_{3}$,0.3567,eV/atom,
La$_{3}$TiCl$_{5}$O$_{4}$,3.4545000000000003,eV/atom,
WSF$_{4}$,3.3106,eV/atom,
Eu(Ni$_{5}$P$_{3}$)$_{2}$,0.008999999999998565,eV/atom,
Mn$_{7}$SbAsO$_{12}$,0.0,eV/atom,
YbHg$_{3}$,0.0,eV/atom,
XeF$_{3}$,2.481,eV/atom,[Xe+2].F[Xe](F)(F)F
Os(CO)$_{4}$,2.645,eV/atom,
Ti$_{2}$Cu$_{3}$,0.0,eV/atom,
Er(NiP)$_{2}$,0.0,eV/atom,
TiCu$_{2}$,0.01159999999999961,eV/atom,
GaFe$_{2}$AgTe$_{4}$,0.0,eV/atom,
K(NiS)$_{2}$,0.0,eV/atom,
K$_{2}$MnF$_{4}$,2.8070000000000004,eV/atom,
TbGe$_{2}$,0,eV/atom,
UPt$_{3}$,0.0,eV/atom,
Zn$_{2}$SeCl$_{2}$O$_{3}$,4.0939000000000005,eV/atom,
Rb$_{4}$CeH$_{12}$C$_{3}$O$_{17}$,0.2791,eV/atom,
NaCa$_{2}$B$_{9}$(H$_{2}$O$_{5}$)$_{4}$,5.1407,eV/atom,
NaMo$_{6}$Cl$_{13}$,2.3917,eV/atom,
Li$_{3}$(Mg$_{2}$Si)$_{4}$,0.0,eV/atom,
SmInCu$_{2}$,0.0,eV/atom,
TlSe,0.19799999999999995,eV/atom,
La(GePt)$_{2}$,0.021399999999999864,eV/atom,
SrMnO$_{3}$,0.8108,eV/atom,
CsWCl$_{6}$,0.0,eV/atom,
Li$_{8}$CeO$_{6}$,2.5162,eV/atom,
K$_{5}$Nb(CN)$_{8}$,1.7548000000000001,eV/atom,
PrO,0.0,eV/atom,
Mg$_{54}$Ag$_{17}$,0.015900000000000247,eV/atom,
Eu(Mo$_{3}$Se$_{4}$)$_{2}$,0.0,eV/atom,
TbInCu,0.0,eV/atom,
Y(HO)$_{3}$,3.7510000000000003,eV/atom,
SrTcO$_{3}$,0.0,eV/atom,
Sr$_{3}$(SiAs$_{2}$)$_{2}$,0.9178999999999999,eV/atom,
Li$_{2}$Mn(PO$_{3}$)$_{4}$,4.4509,eV/atom,
CsN$_{2}$,0.04939999999999989,eV/atom,
GdS$_{2}$,0.0,eV/atom,
YbRu,0.0,eV/atom,
KU$_{2}$P$_{3}$O$_{14}$,2.3916,eV/atom,
MgSe$_{2}$O$_{5}$,3.0276999999999994,eV/atom,
TaSCl$_{7}$O,2.8496,eV/atom,
KPH$_{3}$NO$_{3}$,4.8289,eV/atom,
Fe$_{3}$Pb$_{8}$F$_{24}$,1.6795999999999998,eV/atom,
Cr$_{2}$P,0.0,eV/atom,
Si$_{2}$H$_{2}$O$_{3}$,6.3669,eV/atom,
LaCuSi,0.0,eV/atom,
ZnSiO$_{3}$,3.4371000000000005,eV/atom,
Yb$_{2}$Fe$_{3}$O$_{7}$,0.4144000000000001,eV/atom,
BaAl$_{2}$B$_{2}$O$_{7}$,4.6477,eV/atom,
Nd$_{2}$Co$_{3}$,0.0,eV/atom,
AuClO,0.9779999999999999,eV/atom,
Eu$_{3}$Au$_{2}$,0.0,eV/atom,
B$_{3}$Rh$_{7}$,0.0,eV/atom,
H$_{18}$RuN$_{5}$(ClO)$_{2}$,1.2495,eV/atom,
Ba$_{3}$Ta$_{2}$CdO$_{9}$,3.4856,eV/atom,
C,4.5214,eV/atom,[C]
Al$_{2}$CuO$_{4}$,0.0,eV/atom,
Na$_{5}$SnP$_{3}$,0.9405999999999999,eV/atom,
Li$_{2}$MgSi,0.08880000000000043,eV/atom,
V$_{4}$O$_{9}$,0.40510000000000024,eV/atom,
Mn(HO)$_{2}$,1.6065,eV/atom,
Na$_{4}$Zr$_{2}$(GeO$_{4}$)$_{3}$,3.7249999999999996,eV/atom,
Rb$_{3}$MnO$_{3}$,1.5167999999999997,eV/atom,
H$_{8}$C$_{3}$SN(OF)$_{3}$,5.8094,eV/atom,O=S(=O)([O-])C(F)(F)F.C[NH2+]C
BN,5.2082999999999995,eV/atom,
K$_{2}$NaV$_{5}$H$_{10}$O$_{19}$,2.4848999999999997,eV/atom,
Al$_{3}$Ru$_{2}$,0.0,eV/atom,
LaSi$_{2}$Rh$_{3}$,0.0,eV/atom,
CaB$_{3}$H$_{7}$O$_{9}$,5.4108,eV/atom,
K$_{8}$UCr$_{4}$(NO$_{12}$)$_{2}$,2.102,eV/atom,
Nd$_{3}$(CuSn)$_{4}$,0.0,eV/atom,
Fe$_{3}$Mo$_{3}$N,0.0,eV/atom,
Rb$_{8}$U$_{9}$O$_{31}$,1.5396,eV/atom,
Na$_{5}$Co$_{2}$O$_{5}$,1.3177999999999999,eV/atom,
Fe$_{11}$Co$_{5}$,0.0,eV/atom,
KErHSe$_{2}$O$_{9}$,0.20720000000000005,eV/atom,
LiU$_{4}$P$_{3}$O$_{20}$,1.8112000000000001,eV/atom,
CrCuN$_{6}$Cl$_{5}$,0.0,eV/atom,
SrTa$_{2}$O$_{6}$,3.2289999999999996,eV/atom,
Eu$_{2}$ZnP$_{2}$,0.0,eV/atom,
ScCoSn,0.0,eV/atom,
Na$_{2}$Si$_{2}$Se$_{5}$,2.4355,eV/atom,
Co$_{2}$P$_{2}$O$_{7}$,2.8808,eV/atom,
Sb$_{2}$BrF$_{15}$,2.8579,eV/atom,
CsPH$_{3}$O$_{3}$F,6.4281,eV/atom,
GdPt$_{3}$,0.04499999999999993,eV/atom,
Na$_{2}$CuP$_{2}$O$_{7}$,0.49130000000000007,eV/atom,
Cs$_{2}$MnS$_{2}$,1.1562000000000001,eV/atom,
K$_{3}$Ti$_{3}$(PO$_{4}$)$_{5}$,2.5785,eV/atom,
CaH$_{8}$(ClO$_{2}$)$_{2}$,5.1834999999999996,eV/atom,
Ce(SiAu)$_{2}$,0.0,eV/atom,
VSb$_{2}$NCl$_{14}$,1.1919,eV/atom,
RuXeF$_{7}$,0.9089,eV/atom,
KMn$_{4}$(PO$_{4}$)$_{3}$,3.3331000000000004,eV/atom,
Nd$_{2}$O$_{3}$,3.708,eV/atom,
CdI$_{2}$,2.3549,eV/atom,
CsUCuSe$_{3}$,0,eV/atom,
SrAl$_{4}$,0.0,eV/atom,
Cu$_{2}$Mo$_{3}$Se$_{4}$,0.0,eV/atom,
H$_{2}$Os$_{5}$(CO)$_{16}$,1.7437,eV/atom,
Dy$_{3}$Zn$_{11}$,0.0,eV/atom,
U$_{2}$Mo$_{2}$C$_{3}$,0.0,eV/atom,
Re$_{2}$N$_{2}$ClF$_{9}$,2.0294,eV/atom,
Ag$_{3}$Te$_{2}$Au,0.1767000000000003,eV/atom,
DyMg,0.0,eV/atom,
U$_{2}$Ga$_{8}$Ru,0.0,eV/atom,
LiH$_{2}$IO,3.6278000000000006,eV/atom,
YAgSn,0.0,eV/atom,
CaZrGeO$_{5}$,3.8972,eV/atom,
Cs$_{3}$MnBr$_{5}$,2.7134,eV/atom,
Eu(BO$_{2}$)$_{3}$,0.0,eV/atom,
CdSnF$_{6}$,3.8503999999999996,eV/atom,
LaCd$_{2}$,0.0,eV/atom,
La$_{2}$Te$_{5}$,0.0,eV/atom,
NaCSN,4.0366,eV/atom,
Re$_{24}$Mo$_{5}$,0.0,eV/atom,
NbPO$_{5}$,2.2571,eV/atom,
Ga$_{2}$Se$_{3}$,1.0376,eV/atom,
PrGeBO$_{5}$,3.9977,eV/atom,
Mn$_{4}$Al$_{19}$,0.0,eV/atom,
TaNiTe$_{5}$,0.0,eV/atom,
Ba$_{4}$Er(RuO$_{4}$)$_{3}$,0.0,eV/atom,
Cs$_{2}$LiGaF$_{6}$,6.1363,eV/atom,[Li+].[Cs+].[Cs+].O=C([O-])C1(F)C=C(O)C(F)(O)C(F)(OF)C1(F)F.O=C([O-])C1(F)C=C(O)C(F)(O)C(F)(OF)C1(F)F.O=C([O-])C1(F)C=C(O)C(F)(O)C(F)(OF)C1(F)F
TbSbPd,0.0,eV/atom,
ZrC,0.484,eV/atom,
DyMnGe,0.0,eV/atom,
CaCo$_{3}$(P$_{2}$O$_{7}$)$_{2}$,2.8718000000000004,eV/atom,
ZrAs$_{2}$,0.0,eV/atom,
HfGeRu,0.0,eV/atom,
ScRh$_{3}$C,0.0,eV/atom,
Ba(PO$_{3}$)$_{2}$,5.269,eV/atom,
Mg$_{2}$B$_{2}$AsIr$_{5}$,0.0,eV/atom,
Rb$_{2}$GaAs$_{2}$,0.8526000000000002,eV/atom,
Mg$_{2}$P$_{2}$H$_{12}$O$_{13}$,5.0738,eV/atom,[Mg+2].[Mg+2].O=P([O-])([O-])OP(=O)([O-])[O-].O.O.O.O.O.O
Ba$_{2}$Nd$_{2}$Fe$_{4}$O$_{11}$,0.8703999999999996,eV/atom,
Ba$_{14}$Na$_{11}$Li$_{5}$N$_{6}$,0.0,eV/atom,
UCo$_{3}$B$_{2}$,0.0,eV/atom,
Li$_{4}$ZrF$_{8}$,5.9638,eV/atom,
Mg$_{2}$SiO$_{4}$,4.075200000000001,eV/atom,
K$_{2}$HBrO,3.5292,eV/atom,
SmGa$_{2}$,0.0,eV/atom,
K$_{2}$TaAgS$_{4}$,2.5248,eV/atom,
Sr$_{4}$GaCN$_{5}$,1.4465,eV/atom,
Sr$_{2}$NCl,1.9398000000000004,eV/atom,
Cs$_{2}$PdCl$_{4}$,1.7557,eV/atom,
C,0.9032,eV/atom,
EuClF,0.8959000000000001,eV/atom,
SiO$_{2}$,5.6155,eV/atom,
CaHgO$_{2}$,2.125,eV/atom,
K$_{2}$SbSO$_{4}$F$_{3}$,4.578,eV/atom,
Zr(MnGe)$_{6}$,0.0,eV/atom,
Nd$_{2}$InPd$_{2}$,0.0,eV/atom,
Li$_{3}$H$_{4}$Rh,0.3917999999999999,eV/atom,
ZrNi$_{4}$Sn,0.0,eV/atom,
BaLuFeCuO$_{5}$,0.0,eV/atom,
GdPt,0.009400000000000297,eV/atom,
Ba(MnGe)$_{2}$,0.0,eV/atom,
Te$_{8}$Rh$_{3}$,0,eV/atom,
Cs(Zr$_{3}$I$_{7}$)$_{2}$,0.0,eV/atom,
Sm(MnGe)$_{2}$,0.0,eV/atom,
USnAu,0.0,eV/atom,
K$_{2}$PH$_{3}$O$_{5}$,4.1030999999999995,eV/atom,
HoCu$_{4}$Au,0.0,eV/atom,
Ca$_{2}$SiO$_{4}$,4.4522,eV/atom,
MnInNi$_{2}$,0.0,eV/atom,
Ag$_{2}$S,1.0608000000000004,eV/atom,
V(CrTe$_{2}$)$_{2}$,0.0,eV/atom,
RbGaS$_{2}$,2.4690000000000003,eV/atom,[Rb+].[O-]C(=S)C1=CC(O)=C(O)C(O)=C1
KV$_{3}$Cu$_{5}$O$_{13}$,0.0,eV/atom,
SmCo$_{9}$Si$_{2}$,0.0,eV/atom,
SrH$_{2}$(CO$_{2}$)$_{2}$,4.6652,eV/atom,
KGdS$_{2}$,1.8308,eV/atom,
Ba$_{3}$Sn$_{2}$S$_{7}$,2.1916999999999995,eV/atom,
YB$_{2}$C,0.0,eV/atom,
ZrB$_{2}$O$_{5}$,3.7946000000000004,eV/atom,
K$_{2}$PSe$_{3}$,1.9738999999999998,eV/atom,
UIr$_{3}$,0.0,eV/atom,
Eu$_{2}$BrO$_{2}$,0.0,eV/atom,
Li$_{66}$Be$_{24}$H$_{35}$,0.0,eV/atom,
K(AsRh)$_{2}$,0.0,eV/atom,
CsCu$_{3}$As$_{8}$H$_{24}$C$_{8}$(IO$_{2}$)$_{4}$,2.5000999999999998,eV/atom,
Y$_{3}$(Fe$_{31}$B$_{7}$)$_{2}$,0,eV/atom,
Mn$_{2}$GeO$_{4}$,1.3602999999999996,eV/atom,
Cs$_{2}$PdI$_{6}$,0.19279999999999986,eV/atom,
KSb(PS$_{3}$)$_{2}$,2.2672999999999996,eV/atom,
Cr$_{2}$CdH$_{14}$(NO$_{2}$)$_{4}$,2.7714,eV/atom,
Pr$_{2}$Be$_{2}$GeO$_{7}$,4.2674,eV/atom,
Ba$_{3}$(PSe$_{4}$)$_{2}$,1.1278000000000001,eV/atom,
BaZn$_{5}$,0.0,eV/atom,
LiDyS$_{2}$,1.9344999999999999,eV/atom,
K$_{3}$VSO$_{3}$,3.1401999999999997,eV/atom,
TiCuGeAs,0.0,eV/atom,
La$_{3}$PbI$_{3}$,0.0,eV/atom,
Hg$_{4}$As$_{2}$O$_{7}$,1.1260999999999999,eV/atom,
Ni(BW)$_{2}$,0.0,eV/atom,
KCr$_{5}$Te$_{8}$,0.0,eV/atom,
Sr$_{3}$BCNCl$_{2}$,1.8787999999999996,eV/atom,
Cs$_{2}$IrF$_{6}$,0.0,eV/atom,
LiInMo$_{3}$O$_{8}$,0.0,eV/atom,
Ca$_{3}$Cd$_{2}$,0.0,eV/atom,
Al$_{3}$P$_{2}$H$_{14}$(O$_{5}$F)$_{3}$,5.4724,eV/atom,
Eu$_{3}$ReO$_{7}$,0.0,eV/atom,
Ti(VTe$_{2}$)$_{2}$,0.0,eV/atom,
TbCuSe$_{2}$,0.8279999999999994,eV/atom,
RbVSe$_{2}$,0.0,eV/atom,
LuAl$_{2}$,0.0,eV/atom,
FeIr$_{3}$,0.0,eV/atom,
K$_{3}$SnIrCl$_{8}$,1.5882,eV/atom,
Yb$_{3}$Ni$_{13}$B$_{2}$,0.0,eV/atom,
NbP$_{2}$S$_{2}$Cl$_{5}$,1.6878,eV/atom,
RbBiS$_{2}$,1.3437999999999999,eV/atom,
AlClO,5.5876,eV/atom,
TiGaPt,0.0,eV/atom,
Ca$_{10}$(Al$_{2}$Ge$_{3}$)$_{3}$,0.0,eV/atom,
LaRu$_{2}$,0.0,eV/atom,
Hf(PS$_{3}$)$_{2}$,2.3195,eV/atom,
LuBe$_{13}$,0.0,eV/atom,
Na$_{3}$Fe$_{2}$Mo$_{5}$O$_{16}$,0.0,eV/atom,
Ba$_{5}$Er$_{8}$Zn$_{4}$O$_{21}$,3.3617999999999997,eV/atom,
Sr$_{2}$Ge,0.37760000000000016,eV/atom,
Pr$_{3}$Sb$_{5}$Pd$_{6}$,0.0,eV/atom,
ThC,0.0,eV/atom,
Rb$_{3}$SnP$_{3}$Se$_{11}$,0.7856999999999998,eV/atom,
Ba$_{3}$Ti$_{3}$(BO$_{6}$)$_{2}$,2.1313,eV/atom,
Hg$_{3}$AsBrO$_{4}$,1.9091,eV/atom,
EuBrO,0.0,eV/atom,
EuTl$_{2}$,0.055299999999999905,eV/atom,
Li$_{2}$WO$_{4}$,4.877,eV/atom,
YTc$_{2}$,0.0,eV/atom,
Y$_{2}$GaNi$_{2}$,0.0,eV/atom,
PrNiC$_{2}$,0.0,eV/atom,
YbAl$_{3}$(BO$_{3}$)$_{4}$,0.02200000000000024,eV/atom,
FeH$_{44}$C$_{12}$(N$_{5}$O$_{8}$)$_{2}$,2.4142,eV/atom,
NdGaGe$_{2}$O$_{7}$,2.8601,eV/atom,
Pr$_{3}$MnAlS$_{7}$,0.5118999999999998,eV/atom,
Ba(GeRu)$_{2}$,0.0,eV/atom,
Al$_{2}$CdS$_{4}$,2.7262999999999997,eV/atom,
CeNiSnH$_{2}$,0.0,eV/atom,
Na$_{4}$MgC$_{6}$(SN)$_{6}$,4.1635,eV/atom,
Rb$_{2}$LiVO$_{4}$,3.965,eV/atom,
TiMnSi$_{2}$,0.0,eV/atom,
Na$_{9}$ZrP$_{4}$ClO$_{16}$,3.9694000000000003,eV/atom,
CsC$_{8}$,0.0,eV/atom,
HfGaCo,0.0,eV/atom,
Li$_{2}$CuSb,0.4535,eV/atom,
La$_{3}$Zn$_{3}$Ge$_{2}$SbO$_{14}$,2.9454000000000002,eV/atom,
SrVF$_{5}$,2.3682000000000003,eV/atom,
KSn$_{2}$H$_{36}$C$_{12}$(Se$_{2}$N)$_{3}$,1.8887,eV/atom,
LiV$_{2}$O$_{5}$,0.3474999999999999,eV/atom,
Ba$_{4}$Na(RuO$_{4}$)$_{3}$,0.0,eV/atom,
TiF$_{2}$,0.45179999999999954,eV/atom,
Na$_{6}$Si$_{2}$O$_{7}$,3.3129999999999997,eV/atom,
SiO$_{2}$,5.503399999999999,eV/atom,
Tl$_{4}$Bi$_{2}$S$_{5}$,0.9896999999999996,eV/atom,
LiUN$_{2}$,0.0,eV/atom,
NaSb$_{3}$F$_{10}$,4.968,eV/atom,
Ba(BrO$_{3}$)$_{2}$,4.3347,eV/atom,
KLiCO$_{3}$,4.5408,eV/atom,
HfC,0.2957000000000001,eV/atom,
CeSbTe,0.0,eV/atom,
B(HO)$_{3}$,6.0656,eV/atom,
GdZnIn,0.0,eV/atom,
CeZrO$_{4}$,1.7423000000000002,eV/atom,
La$_{2}$Ta$_{3}$(SO$_{4}$)$_{2}$,0.8316999999999997,eV/atom,
TiGe$_{2}$,0.0,eV/atom,
MgGeO$_{3}$,3.6483000000000003,eV/atom,
NaNpCO$_{5}$,0.05830000000000002,eV/atom,
Sr$_{2}$CrCuSO$_{3}$,0.9866000000000001,eV/atom,
Ni(N$_{3}$O$_{2}$)$_{2}$,0.0,eV/atom,
PrMg$_{2}$,0.0,eV/atom,
GdGeRh,0.0,eV/atom,
Na$_{2}$Cd$_{3}$Si$_{3}$O$_{10}$,2.4467999999999996,eV/atom,
ErH$_{3}$,0.0,eV/atom,
H$_{7}$SIO$_{10}$,2.3634,eV/atom,
NiSeO$_{3}$,3.0748,eV/atom,
Ce$_{2}$Si$_{7}$Rh$_{15}$,0.0,eV/atom,
K$_{3}$(Mo$_{7}$O$_{11}$)$_{2}$,0.035800000000000054,eV/atom,
DyS$_{2}$,0.0,eV/atom,
Dy$_{6}$GaCo$_{2}$,0.0,eV/atom,
CsCrClO$_{3}$,2.8242000000000003,eV/atom,
ThTe,0.0,eV/atom,
NaMgF$_{3}$,6.7529,eV/atom,
Ag$_{2}$PdO$_{2}$,0.02090000000000014,eV/atom,
NaMg$_{4}$(AsO$_{4}$)$_{3}$,3.1921999999999997,eV/atom,
ThB$_{2}$Ir$_{3}$,0.0,eV/atom,
TmMoO$_{4}$F,3.7102000000000004,eV/atom,
AlPO$_{4}$,5.478400000000001,eV/atom,
SbPO$_{4}$,3.9963,eV/atom,
La(AlPd)$_{2}$,0.0,eV/atom,
Nd$_{4}$Sb$_{3}$,0.0,eV/atom,
VCuSe$_{2}$O$_{7}$,0.33610000000000007,eV/atom,
Ce$_{3}$ZrO$_{8}$,1.8144999999999998,eV/atom,
Sc$_{6}$Ni$_{18}$Ge$_{11}$,0.0,eV/atom,
NaSbCl$_{6}$,2.0358,eV/atom,
Li$_{2}$TeO$_{4}$,2.2670999999999997,eV/atom,
Ce$_{8}$Ni$_{18}$P$_{11}$,0.0,eV/atom,
Hf$_{5}$Re$_{24}$,0.0,eV/atom,
Cs$_{2}$Na$_{3}$InO$_{4}$,2.0661,eV/atom,
KMnF$_{4}$,2.0244,eV/atom,
PrZnSbO,0.12950000000000017,eV/atom,
Cr$_{3}$RhN,0.0,eV/atom,
MgGeO$_{3}$,2.4744,eV/atom,
Ca$_{3}$Hg,0.0,eV/atom,
TbCoSi$_{3}$,0.0,eV/atom,
CsIn$_{5}$S$_{8}$,1.2724999999999995,eV/atom,
SiO$_{2}$,5.7494,eV/atom,
Nb(SBr)$_{2}$,1.4015,eV/atom,
H$_{4}$N$_{2}$O$_{3}$,3.1066000000000003,eV/atom,
FeP$_{4}$,0.8043000000000005,eV/atom,
Cu$_{2}$SnHgSe$_{4}$,0.0,eV/atom,
PrSi$_{2}$Rh,0.0,eV/atom,
YbGeBiO$_{5}$,0.0,eV/atom,
Mg$_{13}$Ir$_{3}$,0.0,eV/atom,
Ba(HO)$_{2}$,4.5412,eV/atom,
Al$_{9}$Fe$_{2}$Si$_{4}$HO$_{24}$,3.6530999999999993,eV/atom,
NaHSO$_{4}$,5.487,eV/atom,
LuB$_{2}$Ru,0.0,eV/atom,
SnO,0.0,eV/atom,
URhS$_{3}$,0.0,eV/atom,
FeTe$_{2}$,0.07739999999999903,eV/atom,
SrHfO$_{3}$,3.7293,eV/atom,
Ga$_{3}$Co,0.0,eV/atom,
HCNO,4.4655000000000005,eV/atom,
Cu(RhSe$_{2}$)$_{2}$,0.0,eV/atom,
KMgP,1.6589,eV/atom,
AsH$_{18}$N$_{3}$O$_{7}$,4.1735,eV/atom,
Li$_{3}$CuO$_{3}$,1.1780000000000002,eV/atom,
YRh$_{3}$C,0.0,eV/atom,
Tm$_{3}$(GePd)$_{4}$,0.0,eV/atom,
RbHSeO$_{4}$,3.6243999999999996,eV/atom,
K$_{2}$NaCuF$_{6}$,0.9263,eV/atom,
SrPt$_{2}$,0.0,eV/atom,
Y$_{3}$(Ge$_{3}$Pt$_{2}$)$_{2}$,0.0,eV/atom,
SiO$_{2}$,5.6122000000000005,eV/atom,
NdCuTeO,1.4320999999999993,eV/atom,
Y$_{3}$B$_{7}$W,0.0,eV/atom,
Sm$_{3}$Ni,0.039699999999999847,eV/atom,
Sr$_{2}$MnP$_{3}$O$_{11}$,1.1032000000000002,eV/atom,
P$_{6}$Pb$_{3}$Xe$_{11}$F$_{58}$,2.3499,eV/atom,
Cs$_{3}$BiSe$_{3}$,2.0207,eV/atom,
NpTe,0.0,eV/atom,
Y$_{2}$Sn$_{5}$Rh$_{3}$,0.0,eV/atom,
Er$_{2}$BiO$_{2}$,0.0,eV/atom,
Ce(P$_{3}$Ru)$_{4}$,0.2073999999999998,eV/atom,
Ca$_{3}$N$_{2}$,0.7733000000000003,eV/atom,
MnSeO$_{5}$,0.018199999999999994,eV/atom,
Fe$_{2}$B,0.0,eV/atom,
GdTaO$_{4}$,3.2902,eV/atom,
Zn$_{4}$As$_{2}$O$_{9}$,1.62,eV/atom,
Na$_{6}$Ge$_{2}$Se$_{7}$,1.5871000000000002,eV/atom,
KH$_{6}$C$_{2}$S$_{2}$NO$_{4}$,5.3158,eV/atom,[K+].O=S(=O)([N-]S(=O)(=O)C)C
EuSbPd,0.0,eV/atom,
SiO$_{2}$,5.4814,eV/atom,
Li$_{2}$Mn$_{3}$NiO$_{8}$,1.3205,eV/atom,
UAg$_{2}$(WO$_{5}$)$_{2}$,1.0358,eV/atom,
Rb$_{4}$LiH$_{3}$(SO$_{4}$)$_{4}$,4.0899,eV/atom,
Na$_{2}$Sb$_{4}$O$_{7}$,3.0602,eV/atom,
Ni$_{3}$Se$_{2}$,0.0,eV/atom,
KMnCl$_{3}$O$_{2}$,0.1279999999999999,eV/atom,
Pr$_{4}$C$_{2}$Cl$_{5}$,0.0,eV/atom,
Zr$_{3}$Au,0.0,eV/atom,
Na$_{3}$AlP$_{3}$NO$_{9}$,4.9929,eV/atom,
Cs$_{2}$KCrF$_{6}$,4.067,eV/atom,
NaNb$_{2}$AsO$_{8}$,2.6985,eV/atom,
Y(Fe$_{2}$Si)$_{2}$,0.0,eV/atom,
Er$_{2}$Al$_{3}$Co,0.0,eV/atom,
RbMoP$_{2}$O$_{7}$,3.8594000000000004,eV/atom,
BaDy$_{2}$CoO$_{5}$,1.8435999999999995,eV/atom,
Y$_{4}$CdRu,0.0,eV/atom,
Ag$_{2}$AsS$_{4}$N,0.0,eV/atom,
CeBMoO$_{6}$,0.010600000000000165,eV/atom,
Ba$_{3}$ZnN$_{2}$O,0.42289999999999983,eV/atom,
LiCa$_{2}$InGe$_{2}$,0.004399999999999515,eV/atom,
Ce$_{12}$C$_{6}$I$_{17}$,0.0,eV/atom,
Dy$_{12}$Co$_{7}$,0.0,eV/atom,
Nd(Mo$_{4}$O$_{7}$)$_{2}$,0.0,eV/atom,
K$_{4}$W$_{2}$Cl$_{10}$O,1.1831,eV/atom,
K(FeTe)$_{2}$,0.0,eV/atom,
BaC$_{2}$S$_{2}$(OF)$_{6}$,6.1552999999999995,eV/atom,
V(NF$_{2}$)$_{3}$,0.0,eV/atom,[F-].[F-].[F-].[F-].[F-].[F-].[V+3].[NH4+].[NH4+].[NH4+]
GeTe,0.3630999999999993,eV/atom,
LiNdSn,0.0,eV/atom,
CrReO$_{4}$,0.0,eV/atom,