formula,Property band_gap,Property band_gap units,Property SMILES
CrHg$_{3}$(PbO$_{4}$)$_{2}$,1.8827,eV/atom,
Ba(GeP)$_{2}$,0.5134000000000003,eV/atom,
Co$_{2}$TeBr$_{2}$O$_{3}$,2.3675,eV/atom,
Ba$_{3}$AlF$_{9}$,6.295800000000001,eV/atom,
Na$_{2}$Ta$_{4}$O$_{11}$,3.4657,eV/atom,
ErCuAs$_{2}$,0.0,eV/atom,
Mn(InTe$_{2}$)$_{2}$,0.12929999999999975,eV/atom,
CsMnF$_{4}$,0.0994,eV/atom,
La$_{2}$CoO$_{4}$,0.8839000000000006,eV/atom,
ErCuTe$_{2}$BrO$_{6}$,0.3734000000000002,eV/atom,
Na$_{2}$FeNiF$_{7}$,2.7689999999999997,eV/atom,
Ba$_{3}$LaIr$_{2}$O$_{9}$,0.0,eV/atom,
Mg(ReO$_{6}$)$_{2}$,0.07669999999999999,eV/atom,
Sc(MnAl$_{2}$)$_{4}$,0.0,eV/atom,
Al$_{2}$RhC$_{4}$Cl$_{7}$O$_{4}$,2.0206999999999997,eV/atom,
NaAuSe$_{2}$,0.9065999999999999,eV/atom,
Na$_{2}$P$_{2}$H$_{2}$O$_{7}$,5.205,eV/atom,
U$_{2}$InRh$_{2}$,0.0,eV/atom,
AlH$_{18}$(NO$_{6}$)$_{3}$,3.3950000000000005,eV/atom,[Al+3].[H]O[H].[H]O[H].[H]O[H].[H]O[H].[H]O[H].[H]O[H].[H]O[H].[H]O[H].[H]O[H].O=[N+]([O-])[O-].O=[N+]([O-])[O-].O=[N+]([O-])[O-]
Dy$_{5}$Si$_{3}$,0.0,eV/atom,
K$_{2}$NiP$_{4}$(HO$_{2}$)$_{8}$,4.9861,eV/atom,
Nd$_{3}$TaO$_{7}$,3.4829,eV/atom,
YbAlB$_{4}$,0.0,eV/atom,
Rb$_{3}$(Cu$_{4}$S$_{3}$)$_{2}$,0.0,eV/atom,
ZrZn,0.0,eV/atom,
Y$_{2}$Fe$_{2}$Si$_{2}$C,0.0,eV/atom,
Si$_{2}$Ag$_{6}$O$_{7}$,0.30810000000000004,eV/atom,
SrMoO$_{3}$,1.0873,eV/atom,
TaTe$_{5}$Pt,0.0,eV/atom,
Na$_{2}$CrCl$_{4}$,0.7107999999999999,eV/atom,
K$_{2}$Mn$_{2}$Be$_{3}$F$_{12}$,4.5317,eV/atom,
SnS$_{8}$(N$_{2}$Cl)$_{4}$,1.5977999999999999,eV/atom,
Ca$_{3}$Be$_{2}$Si$_{3}$(HO$_{6}$)$_{2}$,5.0047,eV/atom,
Mn,0.0,eV/atom,
KCuO,0.0,eV/atom,
ZnB$_{4}$O$_{7}$,5.374300000000001,eV/atom,
CsSbF$_{4}$,4.4582,eV/atom,
Li$_{2}$AlPd,0.0,eV/atom,
KGeBiS$_{4}$,1.8562,eV/atom,
Yb$_{3}$Sb$_{5}$O$_{12}$,0.0,eV/atom,
NdNiSnH,0.0,eV/atom,
V$_{3}$Ga,0.0,eV/atom,
TePb,1.1150000000000002,eV/atom,
KYbSiS$_{4}$,0.0,eV/atom,
SiC,1.914200000000001,eV/atom,
YbIn$_{4}$Pt,0.0,eV/atom,
LiCdBO$_{3}$,2.1155999999999997,eV/atom,
PbF$_{3}$,1.8821999999999999,eV/atom,
BaCe$_{2}$O$_{4}$,0.0,eV/atom,
Er$_{2}$Cr$_{2}$C$_{3}$,0.0,eV/atom,
LaSc$_{3}$(BO$_{3}$)$_{4}$,4.1081,eV/atom,
Cs$_{2}$Ba$_{3}$(P$_{2}$O$_{7}$)$_{2}$,4.7249,eV/atom,
Gd$_{2}$(FeB)$_{7}$,0.0,eV/atom,
Sr(Ag$_{2}$Sb)$_{2}$,0.0,eV/atom,
FeNi$_{2}$,0.0,eV/atom,
Eu,0.0,eV/atom,
InPt,0.0,eV/atom,
UGa$_{5}$Fe,0.0,eV/atom,
CeTlCd,0.0,eV/atom,
LiAuF$_{4}$,2.085,eV/atom,
RbZn$_{4}$P$_{3}$,0.2037,eV/atom,
AlTlI$_{4}$,3.4463999999999997,eV/atom,
Cs$_{2}$LiCl$_{3}$,5.13,eV/atom,
La$_{3}$SiBr$_{3}$,0,eV/atom,
Na$_{4}$CrH$_{8}$SO$_{7}$,2.4185999999999996,eV/atom,
ThBi,0.0,eV/atom,
Ba(BS$_{2}$)$_{2}$,2.7399,eV/atom,
Pr$_{4}$Se$_{3}$O$_{4}$,1.3245000000000005,eV/atom,
Sn$_{2}$IF$_{3}$,2.3751,eV/atom,
Sr$_{2}$HfCrO$_{6}$,0.4405999999999999,eV/atom,
Gd$_{2}$WO$_{6}$,3.1124,eV/atom,
ErOs$_{2}$,0.0,eV/atom,
USnRu,0.0,eV/atom,
Dy$_{5}$(MoO$_{6}$)$_{2}$,0.7962000000000002,eV/atom,
K$_{3}$NdH$_{6}$(C$_{2}$O$_{5}$)$_{3}$,3.2029,eV/atom,
SmFe$_{12}$,0.0,eV/atom,
Sm$_{5}$Si$_{3}$,0.0,eV/atom,
Rb$_{4}$Mo$_{21}$S$_{25}$,0.0,eV/atom,
WN$_{2}$,1.5764999999999993,eV/atom,
Sr$_{2}$Cu(ClO)$_{2}$,0.0,eV/atom,
Mg(BeN)$_{2}$,4.0657000000000005,eV/atom,
CeAl$_{4}$Co,0.0,eV/atom,
MgGeO$_{3}$,2.5261,eV/atom,
Nb$_{5}$P$_{3}$,0.0,eV/atom,
YbAlGa,0.0,eV/atom,
CuH$_{6}$(NCl)$_{2}$,0.050999999999999934,eV/atom,
U$_{2}$CuAs$_{2}$(H$_{4}$O$_{5}$)$_{4}$,1.0205,eV/atom,
KMgP(H$_{6}$O$_{5}$)$_{2}$,4.7532,eV/atom,[Mg+2].[K+].O=P([O-])([O-])[O-].O.O.O.O.O.O
BaTi$_{5}$O$_{11}$,2.6952000000000003,eV/atom,
K(NpSe$_{3}$)$_{2}$,0.0,eV/atom,
H$_{2}$PbO$_{2}$,2.5105,eV/atom,
BeCl$_{2}$,6.3715,eV/atom,
SiO$_{2}$,5.2101999999999995,eV/atom,
Sm$_{2}$Au,0.0,eV/atom,
Ge$_{5}$F$_{12}$,4.3696,eV/atom,
AgTeO$_{3}$,1.4211,eV/atom,
K$_{4}$Si$_{23}$,0.0,eV/atom,
Nd$_{2}$NiB$_{10}$,0.0968,eV/atom,
Cs$_{6}$Fe$_{2}$O$_{5}$,1.5097999999999998,eV/atom,
Rb$_{2}$Cd$_{3}$Te$_{4}$,1.4415,eV/atom,
Ba(CuS)$_{2}$,0.9028,eV/atom,
BaFeF$_{4}$,3.3521,eV/atom,
LuNiSn$_{4}$,0.011299999999999422,eV/atom,
SmBi,0.0,eV/atom,
RuClF$_{8}$,1.12,eV/atom,
BaV(AsO$_{4}$)$_{2}$,2.4743000000000004,eV/atom,
EuGe$_{2}$,0.0,eV/atom,
Zr(MoO$_{4}$)$_{2}$,3.1411,eV/atom,
NaHoSe$_{2}$,1.8867,eV/atom,
Na$_{2}$BHO$_{3}$,3.8045999999999998,eV/atom,
Rb$_{2}$Na$_{2}$SiO$_{4}$,3.083,eV/atom,
GdP$_{5}$O$_{14}$,3.1654,eV/atom,
CsCeHgSe$_{3}$,0.0,eV/atom,
Cd$_{4}$GeSe$_{6}$,0.7534000000000001,eV/atom,
CaZnSO,2.683,eV/atom,
K$_{9}$InSe$_{7}$,1.8913000000000002,eV/atom,
NaSr$_{2}$CrF$_{8}$,4.0386,eV/atom,
CsKMo$_{4}$(P$_{3}$O$_{13}$)$_{2}$,2.337,eV/atom,
SrS,2.5006000000000004,eV/atom,
Ti(CrTe$_{2}$)$_{2}$,0.0,eV/atom,
MnO$_{2}$,1.5210000000000001,eV/atom,
Sr(BO$_{2}$)$_{2}$,6.3751,eV/atom,
FeSO$_{4}$,4.1086,eV/atom,
Sm$_{2}$AlGe$_{6}$,0.0,eV/atom,
Ta$_{2}$MnO$_{6}$,3.1393000000000004,eV/atom,
H$_{2}$,7.4833,eV/atom,
Ce$_{2}$Sc$_{3}$Si$_{4}$,0.0,eV/atom,
HfO$_{2}$,3.393299999999999,eV/atom,
CeS$_{2}$,0.0,eV/atom,
Er$_{2}$MgGe$_{2}$,0.0,eV/atom,
Ta$_{11}$(CoSe$_{4}$)$_{2}$,0.0,eV/atom,
Mn(GaS$_{2}$)$_{2}$,0.0,eV/atom,
Sr$_{3}$ScNiO$_{6}$,0,eV/atom,
CoAs,0.0,eV/atom,
NaLiCO$_{3}$,4.4576,eV/atom,
CaFe$_{3}$O$_{5}$,1.2761,eV/atom,
EuNi$_{4}$B,0.0,eV/atom,
SrSnO$_{3}$,1.5550000000000006,eV/atom,
Mo$_{2}$H$_{26}$C$_{8}$N$_{2}$O$_{5}$F$_{6}$,3.8239,eV/atom,
Na$_{2}$CuH$_{20}$C$_{12}$(N$_{2}$O$_{3}$)$_{6}$,0.8796999999999999,eV/atom,
Mg$_{7}$As$_{6}$(HO$_{6}$)$_{4}$,2.9891000000000005,eV/atom,
Yb$_{2}$Cr$_{2}$C$_{3}$,0.0,eV/atom,
Fe$_{3}$RhN,0.0,eV/atom,
LiErSe$_{2}$,1.6151,eV/atom,
K$_{6}$Si$_{2}$O$_{7}$,3.5066000000000006,eV/atom,
NaTi$_{5}$Se$_{8}$,0.0,eV/atom,
PrAl$_{4}$,0.0,eV/atom,
UTeP,0.0,eV/atom,
NbBr$_{5}$,1.5990000000000002,eV/atom,
Li$_{3}$B(PO$_{4}$)$_{2}$,6.1272,eV/atom,
AgPPd$_{5}$,0.0,eV/atom,
RbBrF$_{4}$,3.3548,eV/atom,
Na$_{4}$Br$_{2}$O,1.9830999999999999,eV/atom,
Na$_{2}$MoO$_{4}$,4.3938999999999995,eV/atom,
Pd(NCl)$_{2}$,0.5309999999999999,eV/atom,
Cs$_{3}$As$_{5}$O$_{9}$,3.1355999999999997,eV/atom,
GdAl,0.0,eV/atom,
Na$_{6}$Sn$_{2}$S$_{7}$,2.0846999999999998,eV/atom,
DyIn$_{3}$,0.0,eV/atom,
Y$_{7}$C$_{2}$I$_{12}$N,1.0406,eV/atom,
Er$_{2}$O$_{3}$,4.1922,eV/atom,
LiFeSO$_{4}$F,4.1059,eV/atom,
Mg(BH$_{4}$)$_{2}$,6.0799,eV/atom,
Mn$_{2}$AsHO$_{5}$,1.654,eV/atom,
Ho$_{3}$(AgSn)$_{4}$,0.0,eV/atom,
Th$_{2}$Ni$_{17}$,0.019099999999999895,eV/atom,
Nd(Re$_{2}$Si)$_{2}$,0.0,eV/atom,
Si$_{2}$NiP$_{3}$,0.0,eV/atom,
Al$_{2}$O$_{3}$,4.271699999999999,eV/atom,
ScHg,0.0,eV/atom,
ScNiSn,0.0,eV/atom,
K$_{5}$U$_{2}$O$_{4}$F$_{9}$,2.7062,eV/atom,
Lu$_{6}$Sb$_{2}$Mo,0.0,eV/atom,
Lu$_{3}$Ga$_{8}$Cu$_{3}$,0.0,eV/atom,
TiRu$_{3}$,0.0,eV/atom,
CsZn$_{4}$As$_{3}$,9.999999999976694E-5,eV/atom,
Sr(BS$_{2}$)$_{2}$,2.8242000000000003,eV/atom,
KBaPS$_{4}$,2.3898,eV/atom,
Ca$_{9}$Mn$_{4}$Bi$_{9}$,0.0,eV/atom,
Cu$_{2}$GeP$_{2}$(H$_{5}$O$_{7}$)$_{2}$,0.6064999999999999,eV/atom,
Tm$_{2}$O$_{3}$,4.1691,eV/atom,
Hf$_{3}$P$_{2}$,0.0,eV/atom,
Ca(PO$_{3}$)$_{2}$,5.4991,eV/atom,
Fe$_{7}$W$_{6}$,0.0,eV/atom,
GeSb,0.0,eV/atom,
Ca$_{3}$ZrSi$_{2}$O$_{9}$,4.4537,eV/atom,
PH$_{4}$N(OF)$_{2}$,5.1708,eV/atom,O=P([O-])(F)F.[NH4+]
C$_{2}$SeN$_{2}$,3.4367,eV/atom,N#C[Se]C#N
U,0.0,eV/atom,
Na$_{2}$H$_{6}$PtO$_{6}$,2.6037,eV/atom,
Ir(Cl$_{2}$F$_{3}$)$_{2}$,0.0,eV/atom,
Y$_{7}$Te$_{2}$,0.0,eV/atom,
CeHg$_{3}$,0.0,eV/atom,
PrYSi$_{2}$O$_{7}$,0.6189999999999998,eV/atom,
ZrP,0.0,eV/atom,
SrCu$_{9}$Si$_{4}$,0.0,eV/atom,
TaPS$_{6}$,0.8658000000000001,eV/atom,
Sm(BC)$_{2}$,0.0,eV/atom,
PuCoC$_{2}$,0.0,eV/atom,
Pb$_{3}$SO$_{6}$,2.936,eV/atom,
V$_{2}$S$_{2}$O$_{11}$,2.3422,eV/atom,
Ce$_{3}$Sn$_{13}$Rh$_{4}$,0.0,eV/atom,
LiB$_{11}$,0.0,eV/atom,
ZrMn$_{2}$,0.0,eV/atom,
Re$_{3}$Se$_{4}$Br,1.4421000000000004,eV/atom,
PrAlAu,0.0,eV/atom,
SrNbO$_{3}$,0.0,eV/atom,
CaH$_{4}$(N$_{3}$O)$_{2}$,4.184699999999999,eV/atom,[Ca+2].[N-]=[N+]=[N-].[N-]=[N+]=[N-].O.O
Ca$_{3}$(AlGe)$_{2}$,0.0,eV/atom,
Ba$_{2}$Ca$_{3}$Tl$_{2}$(CuO$_{3}$)$_{4}$,0.0,eV/atom,
H$_{8}$C$_{2}$NCl,5.3861,eV/atom,[Cl-].CC[NH3+]
Ba$_{4}$TiAs$_{4}$,1.036,eV/atom,
Sr$_{3}$(InP$_{2}$)$_{2}$,0.5902000000000003,eV/atom,
CeSb$_{2}$Au,0.0,eV/atom,
K$_{2}$BiAu,0.9609999999999999,eV/atom,
Sr$_{2}$FeN$_{2}$,0.0,eV/atom,
Al$_{2}$Se$_{3}$,1.8016,eV/atom,
NaGe$_{2}$N$_{3}$,2.3268,eV/atom,
SbMoOF$_{9}$,3.6797999999999997,eV/atom,
BaPdO$_{5}$,0.0,eV/atom,
LiBeH$_{4}$NF$_{4}$,6.5775,eV/atom,
SiO$_{2}$,5.522,eV/atom,
LuCo$_{2}$,0.0,eV/atom,
Ba$_{2}$SrUO$_{6}$,2.2434,eV/atom,
K$_{4}$Ti$_{3}$S$_{14}$,1.1896,eV/atom,
YbSbPd,0.0,eV/atom,
Bi$_{2}$Pd$_{3}$S$_{2}$,0.0,eV/atom,
NdSnPd,0.0,eV/atom,
Al$_{6}$Cd$_{4}$SO$_{12}$,2.7127999999999997,eV/atom,
Er$_{2}$InCu$_{2}$,0.0,eV/atom,
BiTePt,0.0,eV/atom,
Tm$_{8}$S$_{11}$,0.0,eV/atom,
RbH$_{2}$O$_{2}$F,4.0153,eV/atom,
Bi$_{6}$Cl$_{7}$,1.6159999999999997,eV/atom,
Pr(AlBr$_{4}$)$_{3}$,3.3654,eV/atom,
LuGePd,0.0,eV/atom,
YbHCl,4.0777,eV/atom,
Y$_{2}$Pd$_{2}$Pb,0.0,eV/atom,
ZrFe$_{2}$,0.0,eV/atom,
DyRe$_{2}$,0.0,eV/atom,
BaHo(CoO$_{3}$)$_{2}$,0.0,eV/atom,
Cr$_{2}$TeO$_{6}$,1.3290999999999995,eV/atom,
Np(CuSi)$_{2}$,0.0,eV/atom,
BaTa$_{2}$Bi$_{2}$O$_{9}$,1.9158,eV/atom,
ZrFeCl$_{6}$,0.741,eV/atom,
CdI$_{2}$,2.3911999999999995,eV/atom,
UGeS,0.0,eV/atom,
SnH$_{3}$S$_{4}$N$_{4}$Cl$_{5}$O,1.8407,eV/atom,
CsReO$_{4}$,4.2585,eV/atom,
AgBH$_{2}$OF$_{4}$,3.044,eV/atom,
LiCr(GeO$_{3}$)$_{2}$,2.7725,eV/atom,
PH$_{8}$IN$_{4}$,4.0455000000000005,eV/atom,[I-].N[P+](N)(N)N
Ba$_{7}$Sn$_{3}$Se$_{13}$,1.4091999999999998,eV/atom,
NaTbSe$_{2}$,1.8390000000000002,eV/atom,
YbNbO$_{4}$,0,eV/atom,
Nb$_{8}$Zn$_{4}$C$_{3}$,0.0,eV/atom,
SmRu$_{2}$,0.0,eV/atom,
K$_{4}$US$_{3}$O$_{14}$,1.8491,eV/atom,
CrB,0.0,eV/atom,
KPrGeSe$_{4}$,1.6332,eV/atom,
Mg$_{3}$Si$_{4}$(HO$_{6}$)$_{2}$,5.1766000000000005,eV/atom,
Ti,0.0,eV/atom,
ScN,0.0,eV/atom,
NaMgF$_{3}$,5.926200000000001,eV/atom,
TiBe$_{12}$,0.0,eV/atom,
U(TeO$_{3}$)$_{3}$,1.7300000000000004,eV/atom,
RbFe(MoO$_{4}$)$_{2}$,2.5548,eV/atom,
B$_{5}$F$_{6}$,3.2984999999999998,eV/atom,
GaCo$_{2}$Ni,0.0,eV/atom,
HIO$_{3}$,3.0606,eV/atom,
PbI$_{2}$,2.3956,eV/atom,
PuPb$_{2}$,0.0,eV/atom,
TbZnPd,0.0,eV/atom,
K$_{2}$Cr$_{2}$Cd(H$_{2}$O$_{5}$)$_{2}$,2.7657,eV/atom,
K$_{4}$GaAu$_{8}$,0.0,eV/atom,
BaNdCo$_{2}$O$_{5}$,0.0,eV/atom,
Rb$_{2}$PuCl$_{6}$,0.3862,eV/atom,
La$_{3}$(NiO$_{3}$)$_{2}$,0.0,eV/atom,
SnBi$_{4}$Te$_{7}$,0.6322999999999999,eV/atom,
Ba$_{2}$LuNbO$_{6}$,2.8478999999999997,eV/atom,
Cs$_{3}$Mo$_{2}$I$_{9}$,0.9283000000000001,eV/atom,
LaVO$_{3}$,0.9979999999999993,eV/atom,
ErAlNi,0.0,eV/atom,
HfAl$_{2}$,0.0,eV/atom,
BHO$_{2}$,6.0887,eV/atom,
GdTiGe,0.010000000000000675,eV/atom,
YbCu(MoO$_{4}$)$_{2}$,0.437,eV/atom,
UCo$_{5}$Sn,0.0,eV/atom,
Yb$_{3}$(Ga$_{2}$Ge$_{3}$)$_{2}$,0.0,eV/atom,
UIr,0.0,eV/atom,
Y$_{3}$Si$_{3}$Rh,0.0016999999999995907,eV/atom,
HoFe$_{5}$,0.0,eV/atom,
DyS$_{2}$,0,eV/atom,
ErSnPt$_{2}$,0.0,eV/atom,
ZnO,0.7309000000000001,eV/atom,
K$_{4}$Th(MoO$_{4}$)$_{4}$,4.0045,eV/atom,
Rb$_{2}$ZrS$_{4}$,1.9236000000000002,eV/atom,
Ba$_{2}$HoRuO$_{6}$,0.08360000000000012,eV/atom,
LiVPO$_{5}$,1.4998,eV/atom,
BiXeF$_{9}$,1.9537,eV/atom,
Mn$_{2}$Ga$_{2}$S$_{5}$,0.0,eV/atom,
Mo$_{6}$H$_{20}$Cl$_{14}$O$_{9}$,0.4679,eV/atom,
RbNO$_{3}$,3.1341,eV/atom,
Fe$_{2}$C,0.0,eV/atom,
LiBeB,0.0,eV/atom,
Pr$_{3}$Te$_{4}$,0.0,eV/atom,
YGa$_{2}$Ni$_{3}$,0.0,eV/atom,
Na$_{2}$CaP$_{2}$O$_{7}$,4.954700000000001,eV/atom,
BiPbClO$_{2}$,2.068,eV/atom,
Na$_{2}$MgPb,0.014800000000000146,eV/atom,
HgCl,2.7243000000000004,eV/atom,
Si,0.6118999999999994,eV/atom,
MnCu$_{2}$Sn,0.0,eV/atom,
Bi$_{2}$MoO$_{6}$,2.1292999999999997,eV/atom,
CoCu$_{2}$SiS$_{4}$,0.0,eV/atom,
Sm(GePt)$_{2}$,0.0,eV/atom,
K$_{3}$Mo$_{2}$BrO$_{7}$,3.0918,eV/atom,
RbPt$_{2}$Se$_{3}$,1.0060000000000002,eV/atom,
Nb$_{5}$Pt$_{3}$O,0.0,eV/atom,
AgPb$_{2}$Br$_{5}$,1.9373999999999998,eV/atom,
BaCaP$_{2}$O$_{7}$,5.3187,eV/atom,
Dy$_{3}$(CuGe)$_{4}$,0.0,eV/atom,
Ce(BO$_{2}$)$_{3}$,0.19449999999999967,eV/atom,
Zr$_{2}$TiAl,0.0,eV/atom,
AgClO$_{4}$,2.8625000000000003,eV/atom,
MnO$_{2}$,1.0003,eV/atom,
BeH$_{8}$SeO$_{8}$,3.9964000000000004,eV/atom,
SrPt$_{5}$,0.0,eV/atom,
Sc$_{2}$Cu$_{2}$O$_{5}$,0.0,eV/atom,
Ca(BO$_{3}$)$_{2}$,0.0,eV/atom,
Si$_{3}$Rh$_{5}$,0.0,eV/atom,
La$_{3}$(GaNi)$_{2}$,0.0,eV/atom,
ZnH$_{8}$C$_{4}$(NO$_{3}$)$_{2}$,0.03400000000000003,eV/atom,
YTaO$_{4}$,4.0314,eV/atom,
HoNi$_{2}$B$_{2}$C,0.0,eV/atom,
MnHC$_{3}$O$_{4}$,2.7733,eV/atom,
U$_{3}$O$_{8}$,0.0,eV/atom,
GdAs,0.0,eV/atom,
Ce$_{3}$SiAgSe$_{7}$,0.0,eV/atom,
Tm$_{2}$Ni$_{17}$,0.0,eV/atom,
DySi$_{2}$,0.0,eV/atom,
Nd(CoP)$_{2}$,0.0,eV/atom,
Sn$_{2}$PCO$_{6}$,2.3095999999999997,eV/atom,
LiNb$_{3}$(Bi$_{2}$O$_{7}$)$_{2}$,2.7406,eV/atom,
FeH$_{4}$,0.0,eV/atom,
SrMo$_{2}$(AsO$_{6}$)$_{2}$,2.6928,eV/atom,
KYbP$_{2}$O$_{7}$,0.028000000000000025,eV/atom,
V$_{2}$NiH$_{6}$(NO$_{3}$)$_{2}$,2.206,eV/atom,
CdI$_{2}$,2.3644,eV/atom,
K$_{3}$(PtO$_{2}$)$_{2}$,0.0,eV/atom,
Ta$_{2}$CoO$_{6}$,2.5215000000000005,eV/atom,
YCuS$_{2}$,1.7908,eV/atom,
OsPbO$_{3}$,0.0,eV/atom,
KMoIO$_{6}$,2.8641,eV/atom,
Ba$_{2}$Ni$_{2}$ClF$_{7}$,4.0759,eV/atom,
SrPb$_{3}$,0.0,eV/atom,
Yb(ReO$_{4}$)$_{3}$,0.0,eV/atom,
Cs$_{2}$Te,1.7740000000000002,eV/atom,
Ni$_{2}$Ge,0.0,eV/atom,
Rb$_{2}$Cr$_{5}$F$_{17}$,2.5291,eV/atom,
BaTbF$_{6}$,0.0,eV/atom,
Pr(ZnP)$_{3}$,0.0389999999999997,eV/atom,
TiFe$_{2}$Sb,0.0,eV/atom,
KPSe$_{6}$,1.8827999999999998,eV/atom,
Sr$_{2}$Co$_{2}$O$_{5}$,0.0,eV/atom,
EuMg$_{2}$Cu$_{9}$,0.006099999999999994,eV/atom,
Rb$_{8}$AlAu$_{3}$O$_{4}$,1.2244,eV/atom,
NaB$_{5}$(H$_{2}$O$_{5}$)$_{2}$,5.5723,eV/atom,
Ba$_{3}$Bi$_{2}$TeO$_{9}$,2.1136000000000004,eV/atom,
La(ClO)$_{3}$,0.119,eV/atom,[Cl-].[Cl-].[Cl-].[La+3].O.O.O
Ca$_{11}$Si$_{4}$SO$_{18}$,3.5249,eV/atom,
PrOs$_{2}$,0.0,eV/atom,
Ag$_{2}$PHO$_{4}$,1.3237999999999999,eV/atom,
Ba$_{2}$PrRuO$_{6}$,0.16700000000000026,eV/atom,
Ni(AgO)$_{2}$,0.0,eV/atom,
S,2.4962999999999997,eV/atom,
KOsNOF$_{5}$,1.0276,eV/atom,
SiO$_{2}$,5.6325,eV/atom,
Al$_{2}$VO$_{7}$,0.0,eV/atom,
Sr$_{2}$ZnCu$_{2}$(SO)$_{2}$,0.673,eV/atom,
Ca$_{3}$N$_{2}$,1.3734999999999995,eV/atom,
NaCl$_{3}$,0.0,eV/atom,
Zr$_{3}$(Mn$_{2}$Si$_{3}$)$_{2}$,0.0,eV/atom,
SnS$_{2}$,1.5585999999999998,eV/atom,
HfIr,0.0,eV/atom,
Sr$_{11}$(CdSb$_{2}$)$_{6}$,0.3131999999999997,eV/atom,
DyCuSeO,1.1804000000000006,eV/atom,
BaSmC$_{2}$O$_{6}$F,4.282,eV/atom,
Er$_{2}$Te$_{4}$O$_{11}$,3.2240999999999995,eV/atom,
PrRu$_{2}$,0.0,eV/atom,
LaYbS$_{3}$,0.0,eV/atom,
Ca$_{2}$Sb$_{4}$Pd$_{3}$,0.0,eV/atom,
CaAl$_{2}$(SiO$_{4}$)$_{2}$,4.945,eV/atom,
Ba$_{2}$LaIrO$_{6}$,0.0,eV/atom,
CuSe$_{2}$Cl,0.7894000000000001,eV/atom,
Bi$_{2}$O$_{3}$,1.5011999999999999,eV/atom,
CeNiPt,0.0,eV/atom,
Ca$_{5}$Pd$_{2}$,0.0,eV/atom,
CdI$_{2}$,2.3746,eV/atom,
NaCu$_{5}$C$_{6}$,1.7390999999999996,eV/atom,
NdNiP,0.0,eV/atom,
KCe(PO$_{3}$)$_{4}$,0.1581999999999999,eV/atom,
InH$_{8}$C$_{8}$N$_{4}$Cl$_{7}$,2.0291,eV/atom,
SrFe$_{4}$(CuO$_{4}$)$_{3}$,0.0,eV/atom,
SrGaCu$_{2}$,0.09870000000000001,eV/atom,
Cu$_{2}$Se$_{2}$NO$_{10}$,0.0,eV/atom,[Cu+2].[Cu+2].[OH-].O=[Se](=O)([O-])[O-].O=[Se](=O)([O-])[O-].O.[NH4+]
Na$_{2}$PHO$_{3}$,5.579899999999999,eV/atom,
YS,0.0,eV/atom,
Nd$_{11}$In$_{9}$Pd$_{4}$,0.0,eV/atom,
KBi$_{2}$,0.0,eV/atom,
Rb$_{3}$(Cu$_{4}$Se$_{3}$)$_{2}$,0.0,eV/atom,
NbS$_{2}$,0.0,eV/atom,
Sr$_{3}$Bi(ClO)$_{3}$,4.0001,eV/atom,
Cs$_{3}$InO$_{3}$,2.1174,eV/atom,
CsYbBr$_{3}$,4.3376,eV/atom,
Sc$_{2}$FeS$_{4}$,0.0,eV/atom,
CeAl$_{3}$Au,0.0,eV/atom,
K$_{3}$Bi,0.13129999999999997,eV/atom,
Y(BIr)$_{4}$,0.0,eV/atom,
EuTlS$_{2}$,0.0,eV/atom,
SrZn$_{13}$,0.0,eV/atom,
BBr$_{3}$,3.8273,eV/atom,
Zr(Se$_{2}$Cl$_{3}$)$_{2}$,1.318,eV/atom,
Pr$_{3}$Pd$_{4}$,0.0,eV/atom,
Er$_{2}$Co$_{7}$,0.0,eV/atom,
KTa$_{3}$CuO$_{9}$,0.0,eV/atom,
DyAgSb$_{2}$,0.0,eV/atom,
BaZrF$_{6}$,6.3261,eV/atom,
BaLi$_{2}$(MgGe)$_{2}$,0.0,eV/atom,
H$_{4}$Ru$_{3}$C$_{9}$N$_{2}$O$_{9}$,2.5809,eV/atom,
Zr$_{2}$Al$_{4}$C$_{5}$,0.0,eV/atom,
Li$_{2}$MoF$_{6}$,2.2737,eV/atom,
S,0.0,eV/atom,
AsH$_{3}$CNOF$_{9}$,4.8974,eV/atom,FC(F)(F)[NH2+]O.F[As-](F)(F)(F)(F)F
CaSn$_{2}$F$_{6}$,3.5026,eV/atom,
Y(Sn$_{3}$Ru$_{2}$)$_{2}$,0.0,eV/atom,
RbPO$_{4}$,0.04399999999999982,eV/atom,
Mg$_{2}$Co$_{12}$As$_{7}$,0.0,eV/atom,
Ba$_{5}$Sb$_{4}$,0.2633000000000001,eV/atom,
EuO,0.0,eV/atom,
TmSb$_{2}$,0.0,eV/atom,
Gd$_{4}$B$_{3}$C$_{4}$,0.0,eV/atom,
Ca$_{2}$H$_{6}$Ru,2.5664,eV/atom,
BaCdGaF$_{7}$,4.4668,eV/atom,
Dy$_{5}$S$_{7}$,0.0,eV/atom,
ReCl$_{6}$,0.0,eV/atom,
RbI$_{3}$,1.8571,eV/atom,
TmNiP,0.0,eV/atom,
Ho$_{2}$CuGe$_{6}$,0.0,eV/atom,
ErGa$_{2}$,0.0,eV/atom,
K$_{2}$ZnBr$_{4}$,3.6561,eV/atom,
Si$_{2}$W,0.0343,eV/atom,
LuCuSb$_{2}$,0.0,eV/atom,
Ba$_{8}$B$_{5}$N$_{10}$F,2.2163,eV/atom,
Ag$_{3}$SbS$_{3}$,0.9527999999999999,eV/atom,
FeH$_{8}$(ClO$_{2}$)$_{2}$,3.8562000000000003,eV/atom,Cl[Fe]Cl.O.O.O.O
CsBaLiP$_{2}$O$_{7}$,4.8877999999999995,eV/atom,
NiSnF$_{6}$,4.0928,eV/atom,
Ba$_{2}$BrN,1.1377000000000002,eV/atom,
VS,0.0,eV/atom,
TmIr$_{2}$,0.0,eV/atom,
Dy(BC)$_{2}$,0.0,eV/atom,
MnNiGe,0.0,eV/atom,
Lu$_{3}$SnC,0.0,eV/atom,
CsYb$_{3}$F$_{10}$,0.0,eV/atom,
Rb(BH)$_{5}$,4.0007,eV/atom,
Ce$_{2}$Ti$_{2}$SiO$_{9}$,0.0,eV/atom,
Al$_{6}$B$_{5}$(O$_{5}$F)$_{3}$,6.114699999999999,eV/atom,
Al$_{10}$V,0.0,eV/atom,
NiTe$_{2}$,0.0,eV/atom,
DyCo$_{4}$B,0.0,eV/atom,
MgCd,0.0,eV/atom,
Ti$_{2}$NiP$_{5}$,0.0,eV/atom,
TlFeI$_{3}$,0.0,eV/atom,
H$_{13}$Se$_{2}$N$_{3}$O$_{8}$,1.0547,eV/atom,
K$_{2}$UI$_{5}$,0.3168000000000002,eV/atom,
Cr$_{2}$P$_{2}$O$_{7}$,2.6129000000000002,eV/atom,
NbGeIr,0.0,eV/atom,
Y$_{2}$Be$_{2}$Fe(SiO$_{5}$)$_{2}$,3.9209,eV/atom,
Mn$_{3}$ZnC,0.0,eV/atom,
H$_{15}$RhBr$_{3}$N$_{5}$,2.6607,eV/atom,
H$_{4}$CN$_{2}$O,5.0712,eV/atom,
CeGa$_{3}$Pd,0.0,eV/atom,
LaGeRu,0.04050000000000065,eV/atom,
Mg(ScGa)$_{2}$,0.0,eV/atom,
Rb$_{2}$Al$_{2}$B$_{2}$O$_{7}$,4.1788,eV/atom,
Cs$_{2}$HgF$_{4}$,2.0818,eV/atom,
Cr$_{2}$Ni,0.0,eV/atom,
Ho$_{5}$NiSb$_{2}$,0.0,eV/atom,
RbCeSe$_{2}$,0.09830000000000005,eV/atom,
Lu$_{2}$Ga$_{8}$Fe,0.0,eV/atom,
DyPbAu,0.0,eV/atom,
Sc(FeSi)$_{2}$,0.0,eV/atom,
YGeIr,0.0,eV/atom,
CCl$_{3}$F,4.8988,eV/atom,FC(Cl)(Cl)Cl
Y$_{6}$Fe$_{23}$,0.0,eV/atom,
UTe$_{6}$(OF$_{5}$)$_{6}$,2.2523,eV/atom,
TaSn$_{2}$,0.0,eV/atom,
La$_{2}$MgTiO$_{6}$,3.1450000000000005,eV/atom,
EuZnGe,0.0,eV/atom,
Tl$_{2}$Br$_{3}$,1.1457,eV/atom,
VH$_{2}$SeO$_{5}$,2.2226999999999997,eV/atom,
Na$_{4}$CO$_{4}$,2.2404,eV/atom,
Rb$_{2}$CuH$_{12}$(SO$_{7}$)$_{2}$,0.6003999999999999,eV/atom,
Ag$_{3}$AsSe$_{3}$,0.8452999999999999,eV/atom,
Ce$_{2}$SnS$_{5}$,0.0,eV/atom,
SrNiP$_{2}$O$_{7}$,3.7087000000000003,eV/atom,
NbFeF$_{6}$,0.0,eV/atom,
CsCdBr$_{3}$,0.6968000000000001,eV/atom,
CaZnGe,0,eV/atom,
Gd(NiP)$_{2}$,0.017800000000001148,eV/atom,
Y$_{2}$S$_{3}$,1.4880000000000004,eV/atom,
USCl$_{9}$,0.564,eV/atom,
RbAu$_{3}$Se$_{2}$,1.7326000000000001,eV/atom,
RbYN$_{4}$,0.0,eV/atom,
Li$_{6}$Ca$_{12}$Re$_{4}$N$_{16}$O$_{3}$,0,eV/atom,
Pr(NiBi)$_{2}$,0.0,eV/atom,
SrLiH$_{3}$,1.8195000000000001,eV/atom,
EuAs,0.0,eV/atom,
CsMgBr$_{3}$,4.0445,eV/atom,
Cs$_{3}$As$_{7}$,1.6303,eV/atom,
Sr(InAu)$_{2}$,0.0,eV/atom,
Na$_{2}$PdSe$_{2}$,0.7049000000000003,eV/atom,
Ga$_{2}$NiS$_{4}$,0.0,eV/atom,
KUP(H$_{2}$O$_{3}$)$_{3}$,2.4731,eV/atom,
TiNi,0.0,eV/atom,
LiBeH$_{3}$,4.8256,eV/atom,
Sr$_{2}$CaTlCu$_{2}$O$_{7}$,0.0,eV/atom,
Ce$_{20}$Ti$_{11}$(S$_{22}$O$_{3}$)$_{2}$,0.0,eV/atom,
Nb$_{5}$Se$_{4}$,0.0,eV/atom,
Ca$_{4}$Mg$_{4}$Fe$_{3}$,0.0,eV/atom,
Ca$_{3}$Al$_{2}$Ge$_{3}$,0.0,eV/atom,
ErAl$_{3}$,0.0,eV/atom,
Mn$_{5}$(NiBi$_{2}$)$_{2}$,0.0,eV/atom,
Ba$_{3}$(GeN)$_{2}$,0.0,eV/atom,
LiCoSO$_{4}$F,2.9190000000000005,eV/atom,
Fe$_{2}$(SO$_{4}$)$_{3}$,2.2847999999999997,eV/atom,
K$_{4}$Al$_{3}$Si$_{3}$ClO$_{12}$,4.578799999999999,eV/atom,
Pb$_{3}$(BrO)$_{2}$,2.3882,eV/atom,
VClO,1.6416999999999997,eV/atom,
KCoH$_{6}$(N$_{3}$O$_{4}$)$_{2}$,2.7443,eV/atom,
Pr(CuGe)$_{2}$,0.0,eV/atom,
ScTc$_{2}$,0.0,eV/atom,
SnI$_{3}$,0.0,eV/atom,I[Sn+](I)I.C[NH3+]
TlCdS$_{2}$,0.0,eV/atom,
BaSeO$_{4}$,3.6982,eV/atom,
La(SbPd)$_{2}$,0.0,eV/atom,
LiTi$_{2}$O$_{4}$,0.0,eV/atom,
ZrTiSe$_{4}$,0.0,eV/atom,
CeGaO$_{3}$,0.0,eV/atom,
K$_{4}$Pt$_{2}$(SO$_{4}$)$_{5}$,1.7610999999999999,eV/atom,
Rb$_{3}$B$_{12}$H$_{12}$I,4.6171,eV/atom,
Sr$_{2}$YCrO$_{6}$,0.0,eV/atom,
BaN$_{2}$,0.0,eV/atom,
NaSr(PO$_{3}$)$_{3}$,5.4018,eV/atom,
CoHCO$_{3}$,0.6279999999999999,eV/atom,
La$_{5}$C$_{2}$Cl$_{9}$,1.6330999999999998,eV/atom,
HgH$_{4}$C$_{4}$(NCl$_{2}$)$_{2}$,2.4703999999999997,eV/atom,
Cu$_{3}$TeS$_{3}$Cl,0.7738999999999994,eV/atom,