formula,Property band_gap,Property band_gap units,Property SMILES
NbCo$_{3}$,0.0,eV/atom,
CaP$_{4}$O$_{11}$,5.3424,eV/atom,
ReP$_{4}$,0.7559000000000005,eV/atom,
Na$_{7}$(CoO$_{3}$)$_{2}$,0.0,eV/atom,
BaZn$_{2}$(BO$_{3}$)$_{2}$,3.4810999999999996,eV/atom,
V(CrC)$_{2}$,0.0,eV/atom,
Sb$_{2}$Te$_{3}$,0.1661999999999999,eV/atom,
BaGdFe$_{2}$O$_{5}$,0.3772000000000002,eV/atom,
Nb$_{2}$Te$_{6}$I,0.6360999999999999,eV/atom,
Rb$_{2}$LiCo(CN)$_{6}$,4.2833,eV/atom,
Rb(ThSe$_{3}$)$_{2}$,1.0211000000000001,eV/atom,
Fe,0.0,eV/atom,
Ba$_{2}$SrWO$_{6}$,3.3505000000000003,eV/atom,
Er$_{4}$(Al$_{8}$Pt$_{3}$)$_{3}$,0.0,eV/atom,
Y$_{2}$Si$_{2}$O$_{7}$,4.8042,eV/atom,
DyAu$_{2}$,0.0,eV/atom,
GdNi,0.0,eV/atom,
Nb$_{3}$B$_{3}$C,0.0,eV/atom,
ScGeRh,0.0,eV/atom,
Ti$_{5}$CuSb$_{2}$,0.0,eV/atom,
KHoS$_{2}$,2.3505000000000003,eV/atom,
ErAgGe,0.0,eV/atom,
Zn(BIr)$_{2}$,0.04079999999999995,eV/atom,
Ce$_{2}$Fe$_{14}$B,0.0,eV/atom,
Na$_{2}$FeCuF$_{7}$,0.05650000000000002,eV/atom,
KV(IO$_{4}$)$_{2}$,2.7052,eV/atom,
La$_{2}$MgMnO$_{6}$,1.9571000000000005,eV/atom,
KLa$_{2}$NbO$_{6}$,3.7492,eV/atom,
Rb$_{2}$P$_{3}$,0.7643999999999997,eV/atom,
Hg,0.0,eV/atom,
Sr$_{5}$(AlSb$_{3}$)$_{2}$,0.9150999999999998,eV/atom,
NaCl$_{7}$,0.5030000000000001,eV/atom,
KYb(WO$_{4}$)$_{2}$,0,eV/atom,
Gd$_{3}$ReO$_{7}$,0,eV/atom,
LiZnAsO$_{4}$,2.9218,eV/atom,
CuBr$_{2}$,0.0,eV/atom,
NdIr$_{3}$,0.0,eV/atom,
H$_{6}$C$_{2}$NO,2.5940999999999996,eV/atom,
CdAg,0.0,eV/atom,
CrCdTe$_{2}$,0.0,eV/atom,
CeInPt,0.0,eV/atom,
C$_{2}$Se$_{3}$N$_{2}$,1.9759,eV/atom,
NdNi$_{5}$,0.0,eV/atom,
PuB$_{2}$,0.0,eV/atom,
Ga(SbCl)$_{4}$,2.0139,eV/atom,
Tl$_{2}$Te$_{3}$,0.44479999999999986,eV/atom,
EuNbO$_{3}$,0.0,eV/atom,
Fe$_{2}$(MoO$_{4}$)$_{3}$,2.4941,eV/atom,
MnGa,0.0,eV/atom,
Co(ReO$_{6}$)$_{2}$,0.0,eV/atom,
Hg$_{2}$MoO$_{4}$,2.0389,eV/atom,
CsSnCl$_{3}$,2.9177,eV/atom,
Y(SiPt)$_{2}$,0.0,eV/atom,
ZnAsPt$_{5}$,0.0,eV/atom,
IrN$_{2}$,0.3178000000000001,eV/atom,
LiMoS$_{2}$,1.0286999999999997,eV/atom,
Na$_{2}$FeH$_{4}$C$_{5}$(N$_{2}$O)$_{3}$,2.7695999999999996,eV/atom,
PrBC,0.0,eV/atom,
Mn$_{3}$(AgO$_{2}$)$_{4}$,0.6100000000000003,eV/atom,
Np(SiRu)$_{2}$,0.0,eV/atom,
BaCu$_{4}$S$_{3}$,0.03790000000000049,eV/atom,
Ce$_{3}$SiAgS$_{7}$,0.0,eV/atom,
PCF$_{3}$,3.2147,eV/atom,FC(F)(F)P1P(P(P(P1C(F)(F)F)C(F)(F)F)C(F)(F)F)C(F)(F)F
MnSbPt,0.0,eV/atom,
RbMgH$_{3}$,2.5404999999999998,eV/atom,
Ba$_{2}$TmNbO$_{6}$,2.8502,eV/atom,
OsXe(O$_{2}$F$_{3}$)$_{2}$,2.6167,eV/atom,
Tb$_{11}$O$_{20}$,0.0,eV/atom,
Tb$_{4}$Se$_{3}$N$_{2}$,1.3474,eV/atom,
AgC$_{2}$N$_{3}$,3.7313,eV/atom,
LuNiO$_{3}$,0.11350000000000016,eV/atom,
Hf$_{8}$FeTe$_{6}$,0.0,eV/atom,
K$_{2}$ZnP$_{4}$(HO$_{2}$)$_{8}$,5.0611,eV/atom,
MgGaMo$_{4}$O$_{7}$,0.1554000000000002,eV/atom,
GdAg,0.0,eV/atom,
Zr$_{2}$P$_{2}$WO$_{12}$,3.7457,eV/atom,
CoF$_{2}$,3.0717,eV/atom,
PrGaPd,0.0,eV/atom,
KB(SO$_{4}$)$_{2}$,6.2377,eV/atom,[B+3].[K+].O=S(=O)([O-])OS(=O)(=O)[O-].O=S(=O)([O-])OS(=O)(=O)[O-]
Na$_{4}$V$_{2}$O$_{7}$,3.3849,eV/atom,
Cs$_{2}$LiMn(CN)$_{6}$,0.0,eV/atom,
CaMgGeO$_{4}$,3.6233999999999997,eV/atom,
SiO$_{2}$,5.3645000000000005,eV/atom,
HoAl$_{2}$,0.0,eV/atom,
LiMnTe$_{2}$,0.0,eV/atom,
KEuPS$_{4}$,0.5602999999999998,eV/atom,
Sn$_{3}$PO$_{4}$F$_{3}$,3.7868,eV/atom,
Ba$_{6}$Mg$_{7}$H$_{26}$,2.9720000000000004,eV/atom,
CeTe,0.0,eV/atom,
Rb$_{3}$Mo$_{2}$Br$_{9}$,0.9236000000000001,eV/atom,
Li$_{7}$TaO$_{6}$,4.373399999999999,eV/atom,
CuH$_{9}$CSN$_{4}$Cl$_{3}$O,1.4082,eV/atom,
Sm$_{3}$(MnSn)$_{4}$,0.0,eV/atom,
Sb$_{4}$H$_{2}$SO$_{10}$,3.3641000000000005,eV/atom,
DyB$_{2}$C,0.0,eV/atom,
Sr$_{5}$As$_{3}$ClO$_{12}$,3.8285000000000005,eV/atom,
LaSi$_{2}$Ru$_{3}$,0.0,eV/atom,
LiCaNiF$_{6}$,2.3521,eV/atom,
V$_{2}$Sn$_{4}$H$_{24}$C$_{8}$O$_{9}$,3.1644,eV/atom,
Al$_{17}$Mo$_{4}$,0.0,eV/atom,
LiAlSi$_{2}$H$_{2}$O$_{7}$,4.858,eV/atom,
K$_{3}$CoO$_{2}$,1.5331000000000001,eV/atom,
ErCuSn,0.0,eV/atom,
NdGeRu,0.0,eV/atom,
Ba(FeO$_{2}$)$_{2}$,1.7429000000000001,eV/atom,
MgGaAu,0.0,eV/atom,
Mg$_{7}$P$_{2}$(HO$_{2}$)$_{8}$,4.852600000000001,eV/atom,
LaSi$_{3}$Os,0.0,eV/atom,
Ce$_{4}$B$_{2}$N$_{5}$,0.0,eV/atom,
TeI$_{4}$,1.8285999999999998,eV/atom,
K$_{4}$La$_{6}$OsI$_{14}$,0.0,eV/atom,
Nd$_{7}$Pt$_{3}$,0.0,eV/atom,
KHO,3.6397,eV/atom,
K$_{6}$CoS$_{4}$,0.4322999999999999,eV/atom,
As(S$_{2}$F$_{3}$)$_{2}$,0.0,eV/atom,[S+2].[S+2].[S+2].[S+2].[S+2].[S+2].[S+2].[S+2].F[As-](F)(F)(F)(F)F.F[As-](F)(F)(F)(F)F
Ag$_{2}$Se,0.0,eV/atom,
AgPb$_{4}$ClO$_{4}$,2.4101000000000004,eV/atom,
La$_{3}$(SiPd)$_{4}$,0.0,eV/atom,
Bi$_{3}$Rh,0.0,eV/atom,
LaTiI$_{5}$O$_{16}$,2.8573,eV/atom,
Ba$_{2}$CdS$_{3}$,2.0868,eV/atom,
GeH$_{4}$,0.0,eV/atom,
Mn$_{4}$Be$_{3}$Ge$_{3}$SO$_{12}$,2.4229,eV/atom,
B$_{2}$Au,0.0,eV/atom,
Sr(Si$_{3}$N$_{4}$)$_{2}$,3.208,eV/atom,
CaC$_{2}$,0.6751,eV/atom,
Y$_{4}$CI$_{5}$,0.0,eV/atom,
SbTe(IF$_{2}$)$_{3}$,1.9103,eV/atom,
CaSi$_{2}$,0.5903,eV/atom,
TeS$_{7}$Cl$_{2}$,2.2614,eV/atom,
Si(PbS$_{2}$)$_{2}$,2.0436999999999994,eV/atom,
Ba(P$_{2}$Pd)$_{2}$,0.0,eV/atom,
CsNaGe$_{2}$,0.9986000000000002,eV/atom,
Al$_{2}$CdSe$_{4}$,1.2611000000000003,eV/atom,
NaCu$_{3}$(RuO$_{3}$)$_{4}$,0.0,eV/atom,
RbZnF$_{3}$,4.0807,eV/atom,
Rb$_{4}$SnSb$_{6}$,1.0848,eV/atom,
Sr$_{3}$BiN,0.25890000000000013,eV/atom,
EuCuSn$_{2}$,0.01949999999999985,eV/atom,
Sr$_{2}$Cu$_{6}$P$_{5}$,0.0,eV/atom,
Ti$_{5}$Sb$_{3}$,0.0,eV/atom,
CeAl,0.0,eV/atom,
Cs$_{2}$Xe(BrF$_{7}$)$_{4}$,2.9129,eV/atom,
Sr$_{3}$Li$_{3}$(NiN)$_{4}$,0.0,eV/atom,
GdInCu$_{2}$,0.0,eV/atom,
In,0.0,eV/atom,
LaHg$_{3}$,0.0,eV/atom,
Cs$_{2}$Te$_{2}$O$_{5}$,2.6609000000000003,eV/atom,
LaMg$_{2}$NiH$_{7}$,0.9109999999999996,eV/atom,
KNaSnF$_{6}$,5.1714,eV/atom,
La$_{2}$C$_{2}$Cl,0.0,eV/atom,
SiMo$_{3}$,0.0,eV/atom,
Ba$_{2}$CrO$_{4}$,1.891,eV/atom,
PbS$_{2}$(NO$_{4}$)$_{2}$,0.0,eV/atom,
Zr$_{2}$CS,0.0,eV/atom,
Zr$_{3}$Ga$_{2}$,0.0,eV/atom,
PuZn$_{2}$,0.0,eV/atom,
KAsF$_{6}$,4.9041,eV/atom,
RbNdTe$_{2}$,1.3272,eV/atom,
Rb$_{2}$SiP$_{4}$O$_{13}$,5.166600000000001,eV/atom,
AlF$_{3}$,7.4171,eV/atom,
Tb$_{3}$PbC,0.0,eV/atom,
Ca$_{11}$(ReO$_{6}$)$_{4}$,0.0,eV/atom,
YbIn$_{4}$Pd,0.0,eV/atom,
Sm$_{11}$Cd$_{45}$,0.0,eV/atom,
LaGe$_{2}$,0.010899999999999466,eV/atom,
Na$_{2}$ZrNi(P$_{2}$O$_{7}$)$_{2}$,3.7889999999999997,eV/atom,
TaBe$_{2}$,0.0,eV/atom,
Nd$_{2}$Au$_{5}$F$_{21}$,1.7722,eV/atom,
ErAl$_{7}$Au$_{3}$,0.0,eV/atom,
PuS,0.0,eV/atom,
Sc$_{2}$SiB$_{2}$Ir$_{5}$,0.0,eV/atom,
Ag$_{5}$IO$_{6}$,0.01650000000000018,eV/atom,
Gd$_{2}$Mo$_{5}$O$_{18}$,3.1154,eV/atom,
Rb$_{3}$H(SO$_{4}$)$_{2}$,5.2433000000000005,eV/atom,
Tl$_{2}$WCl$_{6}$,0.0,eV/atom,
YI,0.0,eV/atom,
ErH(SO$_{4}$)$_{2}$,5.757,eV/atom,
SrCdPt,0.0,eV/atom,
Pr$_{4}$NiI$_{5}$,0.0,eV/atom,
Dy$_{4}$(CoB$_{2}$)$_{3}$,0.0,eV/atom,
PbI$_{2}$,2.402,eV/atom,
ReH$_{8}$(Br$_{3}$N)$_{2}$,0.8133,eV/atom,
ReTeS,0.0719000000000003,eV/atom,
KGe,0.0,eV/atom,
Cs$_{2}$ZrF$_{6}$,6.6924,eV/atom,
SmMnGe$_{2}$,0.0,eV/atom,
Er,0.0,eV/atom,
Ca$_{7}$GeN$_{6}$,2.2318,eV/atom,
Tm$_{2}$C(NO)$_{2}$,4.0299,eV/atom,
BaNdCuBO$_{5}$,0.0,eV/atom,
InPH$_{5}$NO$_{5}$,3.5128000000000004,eV/atom,
Ho$_{2}$O$_{3}$,4.2394,eV/atom,
VPO$_{4}$F,1.5595000000000003,eV/atom,
Ca$_{3}$MnCoO$_{6}$,0.0,eV/atom,
K$_{2}$ZrSi$_{2}$O$_{7}$,4.5246,eV/atom,
SnPSe$_{3}$,1.3451000000000004,eV/atom,
Fe$_{3}$S$_{4}$,0.0,eV/atom,
Ti$_{2}$Ge,0.0,eV/atom,
RbTiBr$_{3}$,0.0,eV/atom,
Na$_{2}$BeSiO$_{4}$,4.562,eV/atom,
LaHgPd,0.0,eV/atom,
Hg$_{3}$(TeBr)$_{2}$,1.6997,eV/atom,
La$_{2}$Ni$_{7}$,0.0,eV/atom,
Np(SiPd)$_{2}$,0.0,eV/atom,
SiO$_{2}$,5.6971,eV/atom,
Y$_{5}$Mg$_{8}$Cu$_{5}$,0.0,eV/atom,
K$_{2}$UBr$_{5}$,0.11680000000000001,eV/atom,
Ce$_{3}$Zr$_{5}$O$_{16}$,1.7776,eV/atom,
ReN,0.0,eV/atom,
Ga$_{3}$Fe,0.22150000000000025,eV/atom,
Np(SeO$_{3}$)$_{2}$,0.02210000000000001,eV/atom,
CeO$_{2}$,0.6968999999999994,eV/atom,
BaVS$_{3}$,0.0,eV/atom,
MoPb$_{2}$O$_{5}$,2.9254000000000002,eV/atom,
Pd(AuF$_{4}$)$_{2}$,0.0,eV/atom,
La$_{3}$NbSe$_{2}$(O$_{2}$F)$_{2}$,1.4329999999999998,eV/atom,
Lu,0.044500000000000206,eV/atom,
CdI$_{2}$,2.3562000000000003,eV/atom,
PaP$_{2}$,0.0,eV/atom,
Sr$_{5}$Zr$_{3}$F$_{22}$,5.3637999999999995,eV/atom,
RbVBr$_{3}$,0.5943,eV/atom,
K$_{2}$NbCuSe$_{4}$,1.5915,eV/atom,
LuBRh$_{3}$,0.0,eV/atom,
SrI$_{2}$O,0.034499999999999975,eV/atom,
Dy$_{3}$Sb$_{4}$Au$_{3}$,0.5677000000000003,eV/atom,
K$_{4}$WS$_{3}$O$_{14}$,3.4321,eV/atom,
Rb$_{4}$TmI$_{6}$,0.0,eV/atom,
K$_{5}$CeCo$_{2}$(NO$_{2}$)$_{12}$,0.0,eV/atom,
KUP$_{3}$O$_{11}$,2.2711,eV/atom,
Tm(FeB)$_{2}$,0.0,eV/atom,
In$_{9}$Pt$_{13}$,0.0,eV/atom,
Na$_{2}$Cu$_{4}$S$_{3}$,0.3664999999999994,eV/atom,
Ta$_{2}$CrO$_{6}$,1.0322,eV/atom,
RbClO$_{3}$,5.3151,eV/atom,
CrGe,0.0,eV/atom,
Eu(SnPd)$_{2}$,0.0,eV/atom,
NdB$_{4}$,0.0,eV/atom,
SnAu,0.0,eV/atom,
BaScCuS$_{3}$,0.9102000000000006,eV/atom,
HoReB$_{4}$,0.0,eV/atom,
SiRu$_{2}$,0.0,eV/atom,
NpF$_{3}$,0.0,eV/atom,
Mg$_{7}$Si$_{8}$(O$_{11}$F)$_{2}$,5.3655,eV/atom,
HfSiS,0.0,eV/atom,
Yb(GaSe$_{2}$)$_{2}$,1.6199000000000001,eV/atom,
CoH$_{9}$C$_{6}$(S$_{2}$O)$_{3}$,2.4311000000000003,eV/atom,[Co+3].[Co+3].[O-]C(=S)[SH-]C.[O-]C(=S)[SH-]C.[O-]C(=S)[SH-]C
CsYbSe$_{2}$,0.0,eV/atom,
KZn$_{4}$(SbO$_{4}$)$_{3}$,2.1239000000000003,eV/atom,
Al$_{9}$Rh$_{2}$,0.0,eV/atom,
MgSiO$_{3}$,5.7928,eV/atom,
BaCN$_{2}$,2.247,eV/atom,
Na$_{5}$Gd(MoO$_{4}$)$_{4}$,3.3896,eV/atom,
BaAlBO$_{3}$F$_{2}$,6.0437,eV/atom,
TiS,0.0,eV/atom,
SrTiSi$_{2}$O$_{7}$,3.6068,eV/atom,
Ba$_{2}$GdSbO$_{6}$,0.0,eV/atom,
Ti$_{3}$Cu$_{4}$,0.0,eV/atom,
Ti$_{3}$Ir,0.0,eV/atom,
MnCoSi,0.0,eV/atom,
ZrMo$_{3}$,0.0,eV/atom,
SrP$_{2}$,0.7929999999999993,eV/atom,
La$_{3}$B$_{2}$N$_{5}$,1.1710000000000012,eV/atom,
Co$_{2}$Mo$_{3}$N,0.0,eV/atom,
LuSbPt,0.0,eV/atom,
LiBH$_{2}$OF$_{4}$,7.129,eV/atom,
In$_{2}$O$_{3}$,0.21310000000000073,eV/atom,
Nd$_{2}$H$_{5}$,0.0,eV/atom,
Ta$_{3}$(BiS$_{3}$)$_{2}$,0.0,eV/atom,
ZnNi$_{3}$N,0.0,eV/atom,
Sr$_{2}$Mg$_{3}$H$_{10}$,2.8642000000000003,eV/atom,
V,0.0,eV/atom,
CeTlTe$_{2}$,0.0,eV/atom,
Co(CN)$_{6}$,0.0,eV/atom,
TbGa$_{3}$,0.0,eV/atom,
Ba$_{3}$Te$_{4}$O$_{11}$,3.2308999999999997,eV/atom,
Na(MoSe)$_{3}$,0.7690000000000001,eV/atom,
Ce(MnAl$_{2}$)$_{4}$,0.0,eV/atom,
Pu$_{5}$Ru$_{3}$,0.0,eV/atom,
Na$_{7}$Y$_{2}$P$_{7}$O$_{24}$,4.8343,eV/atom,
Al$_{3}$Pd$_{5}$,0.0,eV/atom,
Y$_{2}$Si$_{2}$O$_{7}$,4.566000000000001,eV/atom,
K$_{2}$(TcSe$_{2}$)$_{3}$,0.9540000000000002,eV/atom,
IrO$_{2}$,0.0,eV/atom,
Ba$_{4}$Cu$_{3}$Ge$_{20}$,0.0,eV/atom,
BPPbO$_{5}$,4.259,eV/atom,
Tb(BIr)$_{2}$,0.0,eV/atom,
RbSbS(O$_{2}$F)$_{2}$,4.6867,eV/atom,
NaNbCl$_{6}$,2.2372,eV/atom,
KNbCl$_{6}$,1.9232,eV/atom,
Cs$_{3}$TaO$_{8}$,3.0226,eV/atom,
SnRh$_{2}$,0.0,eV/atom,
PtF$_{6}$,0.0,eV/atom,
Ti$_{3}$PO$_{2}$,0.0,eV/atom,
Nd$_{2}$Si$_{3}$Rh,0.0,eV/atom,
Ba$_{19}$Li$_{44}$,0.0,eV/atom,
Al$_{4}$(B$_{2}$O$_{5}$)$_{3}$,5.8172999999999995,eV/atom,
Nd$_{5}$(FeB)$_{18}$,0.0,eV/atom,
Ni$_{3}$(BiS)$_{2}$,0.0,eV/atom,
EuRe$_{2}$,0.0,eV/atom,
Na$_{9}$Sn$_{4}$,0.0,eV/atom,
Sr$_{3}$SbN,0.2574000000000001,eV/atom,
KP,1.0307,eV/atom,
Ta(ICl)$_{2}$,1.1785,eV/atom,
MnPbO$_{3}$,0.0,eV/atom,
Ni$_{3}$GeC,0.0,eV/atom,
GdSi$_{2}$,0.0,eV/atom,
BeCl$_{2}$,6.662800000000001,eV/atom,
Nd(MnGe)$_{6}$,0.0,eV/atom,
LiEuAs,0.0,eV/atom,
K$_{2}$RbMn$_{2}$F$_{7}$,2.9214,eV/atom,
CoO$_{4}$,0.05509999999999993,eV/atom,
U$_{2}$Ti,0.0,eV/atom,
BaThTe$_{4}$,0.0,eV/atom,
RbSmS$_{2}$,2.2721,eV/atom,
CoTe(PbO$_{3}$)$_{2}$,1.7553,eV/atom,
La$_{8}$C$_{8}$Cl$_{5}$,0.0,eV/atom,
ZrCuH$_{8}$(O$_{2}$F$_{3}$)$_{2}$,0.8694999999999999,eV/atom,
DyZn$_{5}$,0.0,eV/atom,
CeB$_{2}$Ir$_{3}$,0.0,eV/atom,
KNa$_{3}$Al$_{4}$(SiO$_{4}$)$_{4}$,3.1136999999999997,eV/atom,
Gd(CuSi)$_{2}$,0.03699999999999992,eV/atom,
Pd$_{3}$S,0.0,eV/atom,
Zn$_{2}$In$_{2}$S$_{5}$,0.0,eV/atom,
Mo$_{4}$H$_{8}$N$_{2}$O$_{13}$,3.1654,eV/atom,
Cs$_{2}$TeOF$_{4}$,5.0193,eV/atom,
TiFe(BiO$_{3}$)$_{2}$,0.0,eV/atom,
HoPd$_{2}$,0.0,eV/atom,
GdAl$_{3}$(BO$_{3}$)$_{4}$,2.8769,eV/atom,
YbPd$_{2}$,0.0,eV/atom,
Cu$_{2}$BiPO$_{6}$,0.0,eV/atom,
U$_{5}$Ge$_{3}$,0.0,eV/atom,
Eu(MgBi)$_{2}$,0.0,eV/atom,
Zn(RhO$_{2}$)$_{2}$,0.9323999999999999,eV/atom,
BiSBr,2.0287,eV/atom,
U(BiO$_{3}$)$_{2}$,1.593,eV/atom,
InHO$_{2}$,1.7764000000000002,eV/atom,
U(Al$_{2}$Cr)$_{4}$,0.0,eV/atom,
Ca$_{2}$Mn(PO$_{5}$)$_{2}$,0.19579999999999997,eV/atom,
CrH$_{14}$N$_{4}$Cl$_{3}$O,3.1829,eV/atom,
LaI,0.0,eV/atom,
SnCI$_{3}$N,0.0,eV/atom,
BaMn$_{3}$O$_{6}$,0.004100000000000215,eV/atom,
PuF$_{3}$,0.05349999999999966,eV/atom,
Mn$_{4}$Ge$_{6}$Ir$_{7}$,0.0,eV/atom,
U$_{2}$SeN$_{2}$,0.0,eV/atom,
Ba$_{3}$NaIr$_{2}$O$_{9}$,0.0,eV/atom,
BaLiH$_{3}$,2.213,eV/atom,
CsMo$_{3}$Br$_{3}$Cl$_{4}$,2.5856,eV/atom,
Ce$_{2}$Ga$_{10}$Pd,0.0,eV/atom,
TlCdCl$_{3}$,3.2946999999999997,eV/atom,
SnP$_{2}$O$_{7}$,3.3217999999999996,eV/atom,
CsUCuTe$_{3}$,0.0,eV/atom,
NaH$_{5}$(SO$_{4}$)$_{3}$,0.0,eV/atom,
Lu$_{2}$Sn$_{2}$O$_{7}$,2.6064999999999996,eV/atom,
Ca$_{3}$C$_{3}$Cl$_{2}$,1.2768000000000002,eV/atom,
Y$_{2}$InAu$_{2}$,0.0,eV/atom,
YS$_{2}$,0,eV/atom,
VGe$_{3}$,0.0,eV/atom,
YbH$_{2}$,0.5937000000000001,eV/atom,
SiO$_{2}$,4.7646999999999995,eV/atom,
Nb$_{3}$S$_{4}$,0.0,eV/atom,
Na$_{5}$Lu(MoO$_{4}$)$_{4}$,3.8301999999999996,eV/atom,
Li$_{3}$BS$_{3}$,3.0495,eV/atom,
HfNi$_{2}$,0.0,eV/atom,
Mg$_{2}$Sn,0.0,eV/atom,
EuAl$_{4}$,0.0,eV/atom,
ScCuS$_{2}$,0.8709999999999996,eV/atom,
SmSbS,9.999999999976694E-5,eV/atom,
Pt(I$_{3}$N)$_{2}$,0.0,eV/atom,
Ni$_{5}$Se$_{4}$(BrO$_{6}$)$_{2}$,3.1006,eV/atom,
NdS$_{2}$,0.3370999999999995,eV/atom,
BaCuP,0,eV/atom,
Sm(PIr)$_{2}$,0.0,eV/atom,
NbBr$_{4}$,0.8548,eV/atom,
Pd$_{7}$Se$_{4}$,0.0,eV/atom,
CuF$_{2}$,0.0,eV/atom,
Zr$_{2}$Ni$_{7}$,0.0,eV/atom,
Li$_{4}$SiPt$_{3}$,0.0,eV/atom,
Ce$_{3}$AlCrS$_{7}$,0.0,eV/atom,
HoTe$_{3}$,0.0,eV/atom,
Li$_{6}$Y(BO$_{3}$)$_{3}$,4.7398,eV/atom,
TmH$_{3}$(CO$_{2}$)$_{3}$,3.9339000000000004,eV/atom,[Tm+3].[H]C(=O)[O-].[H]C(=O)[O-].[H]C(=O)[O-]
GdSI,1.5047000000000001,eV/atom,
FeHO$_{2}$,1.005,eV/atom,
K$_{2}$Al$_{2}$B$_{2}$O$_{7}$,4.5949,eV/atom,
U$_{6}$Mn,0.0,eV/atom,
Zr$_{2}$Sb$_{3}$Pd,0.0,eV/atom,
CaAlAu,0.0,eV/atom,
YB$_{4}$Rh,0.0,eV/atom,
Bi$_{8}$Te$_{9}$,0.07500000000000018,eV/atom,
B$_{2}$CN,0.0,eV/atom,
Rb$_{4}$Ti$_{3}$S$_{14}$,1.2236000000000002,eV/atom,
Ca$_{3}$InP$_{3}$,0.9885000000000002,eV/atom,
Rb$_{2}$U(BrO)$_{4}$,0.6692,eV/atom,
RuCl$_{3}$,0.0,eV/atom,
MoCl$_{5}$,0.0,eV/atom,
Mn(Bi$_{3}$O$_{5}$)$_{4}$,0.0,eV/atom,
ErZn$_{2}$,0.0,eV/atom,
LiCl,6.25,eV/atom,
Cs$_{3}$Ta$_{5}$O$_{14}$,3.7884999999999995,eV/atom,
SmTe$_{2}$,0.0,eV/atom,
KMoPO$_{6}$,2.5431,eV/atom,
CeScO$_{3}$,0.0,eV/atom,
Cu,0.0,eV/atom,
U$_{8}$CrS$_{17}$,0.0,eV/atom,
DyFeH$_{8}$C$_{6}$(N$_{3}$O$_{2}$)$_{2}$,2.6506999999999996,eV/atom,
PCl$_{5}$,1.6455000000000002,eV/atom,ClP(Cl)(Cl)(Cl)Cl
Sm(IO$_{3}$)$_{3}$,3.6031,eV/atom,
PrAlPt,0.0,eV/atom,
SbP$_{2}$O$_{7}$,2.0547,eV/atom,
RbCuSnS$_{3}$,0.13260000000000005,eV/atom,
CaMnBi$_{2}$,0.0,eV/atom,
Ni$_{3}$Ge,0.0,eV/atom,
LiMgIn(MoO$_{4}$)$_{3}$,3.1865,eV/atom,
Cs$_{4}$ZrO$_{4}$,2.7473,eV/atom,
NaPH$_{2}$OF$_{6}$,6.1895,eV/atom,
KErO$_{2}$,3.9606,eV/atom,
Li(YbGe)$_{4}$,0.0,eV/atom,
K$_{3}$NO$_{4}$,3.6478,eV/atom,
RbTeAu,1.1078999999999999,eV/atom,
Rb$_{3}$TaO$_{8}$,2.9856,eV/atom,
Ca$_{5}$P$_{3}$ClO$_{12}$,5.3001000000000005,eV/atom,
KAuI$_{3}$,0.6644,eV/atom,
NaNb$_{4}$Tl$_{3}$P$_{2}$O$_{17}$,2.4915000000000003,eV/atom,
Lu$_{2}$MgGe$_{2}$,0.0,eV/atom,
V$_{3}$O$_{5}$,0.9892999999999996,eV/atom,
Sm$_{3}$InSe$_{6}$,0.7092999999999998,eV/atom,
MgPdF$_{6}$,1.8285,eV/atom,
RbCr$_{4}$BiO$_{14}$,2.2292,eV/atom,
K$_{2}$SiO$_{3}$,3.7441,eV/atom,
Mn$_{6}$Al$_{31}$Ni$_{2}$,0.0,eV/atom,
Fe$_{3}$P$_{2}$H$_{3}$O$_{11}$,2.0659,eV/atom,
LiH$_{2}$BrO,4.3086,eV/atom,
BaCaCrF$_{7}$,4.0221,eV/atom,
RbZn$_{4}$(BO$_{3}$)$_{3}$,2.7811999999999997,eV/atom,
RbAuBr$_{4}$,1.4507,eV/atom,
Na$_{3}$GaS$_{3}$,2.7538,eV/atom,
Os$_{3}$C$_{9}$S$_{2}$O$_{9}$,2.5069,eV/atom,
LuSe,0.0,eV/atom,
Er$_{3}$Fe$_{2}$Ge$_{3}$,0.0,eV/atom,
CaGe,0.0,eV/atom,
Zr$_{2}$CuSi$_{4}$,0.0,eV/atom,
Er$_{2}$Sn$_{2}$O$_{7}$,2.673,eV/atom,
CaCu$_{3}$(RuO$_{3}$)$_{4}$,0.0,eV/atom,
NdB$_{2}$Rh$_{3}$,0.0,eV/atom,
KCuPH$_{2}$O$_{5}$,0.016899999999999915,eV/atom,
B$_{11}$H$_{9}$C(Br$_{3}$O$_{2}$)$_{2}$,0.7529,eV/atom,
UBrO$_{2}$,0.11479999999999979,eV/atom,
RbCa$_{2}$Nb$_{3}$O$_{10}$,1.4813999999999998,eV/atom,
CeSi$_{2}$Pt,0.0,eV/atom,
Na$_{4}$WO$_{5}$,3.8015,eV/atom,
NbSeBr$_{3}$,0.7308999999999999,eV/atom,
VH$_{8}$C$_{10}$N$_{3}$Cl$_{4}$,1.5295999999999998,eV/atom,
ZnS,0.0,eV/atom,
Nd(Mo$_{3}$Se$_{4}$)$_{2}$,0.0,eV/atom,
Tm$_{2}$MgGe$_{2}$,0.0,eV/atom,
CeTa$_{3}$O$_{9}$,0.0,eV/atom,
YbAgS$_{2}$,0.0,eV/atom,
UTeO$_{5}$,1.8368000000000002,eV/atom,
FeB$_{2}$C$_{6}$(O$_{3}$F$_{4}$)$_{2}$,4.5385,eV/atom,
YAgSb$_{2}$,0.0,eV/atom,
BaGd$_{2}$Mn$_{2}$O$_{7}$,0.6527999999999996,eV/atom,
BaAsHO$_{4}$,3.774,eV/atom,
RbCO$_{2}$,4.245699999999999,eV/atom,
PbCN$_{2}$,1.7030999999999996,eV/atom,
CeCdAsO,0.0,eV/atom,
K$_{2}$(ReSe$_{2}$)$_{3}$,1.2263000000000002,eV/atom,
Ce(PO$_{3}$)$_{3}$,0.22279999999999944,eV/atom,
CeSnRu,0.0,eV/atom,
Sr$_{6}$(RhO$_{3}$)$_{5}$,0.0,eV/atom,
LaNi$_{4}$B,0,eV/atom,
AlVNi$_{2}$,0.0,eV/atom,
C,3.3392,eV/atom,[C]
VO$_{2}$,0.17720000000000002,eV/atom,
SrVSi$_{2}$O$_{7}$,2.8073,eV/atom,
Y$_{2}$Si$_{2}$O$_{7}$,4.927899999999999,eV/atom,
Nd$_{2}$Fe$_{2}$Si$_{2}$C,0.0,eV/atom,
Cs(BI)$_{6}$,1.7666000000000002,eV/atom,
MnB$_{2}$F$_{8}$,6.4852,eV/atom,
TmMg$_{2}$,0.0,eV/atom,
K$_{2}$Sn$_{2}$Hg$_{3}$S$_{8}$,1.4179,eV/atom,
Yb$_{11}$(Ce$_{2}$Se$_{11}$)$_{2}$,0.0,eV/atom,
NaBe(BO$_{2}$)$_{3}$,5.3609,eV/atom,
BaSc$_{2}$O$_{4}$,3.8718,eV/atom,
Cu$_{2}$Hg$_{2}$SF$_{6}$,0.0,eV/atom,
Sm(NiP)$_{2}$,0.0,eV/atom,
Li$_{2}$O,4.8986,eV/atom,
MnO$_{2}$,0.9904000000000001,eV/atom,
Ti(AlCl$_{4}$)$_{2}$,0.3218000000000001,eV/atom,
K$_{2}$Co$_{2}$(MoO$_{4}$)$_{3}$,2.1587,eV/atom,
NdMn$_{3}$V$_{4}$O$_{12}$,0.0,eV/atom,
Tl$_{3}$GeTe$_{3}$,0.6694,eV/atom,
SrIr$_{2}$,0.0,eV/atom,
TaCo$_{2}$,0.0,eV/atom,
Cr$_{3}$B$_{7}$ClO$_{13}$,2.7718,eV/atom,
Cs$_{3}$Nb$_{2}$S$_{11}$,1.5506,eV/atom,
Ca(Al$_{2}$Fe)$_{4}$,0.0,eV/atom,
ScTl(MoO$_{4}$)$_{2}$,3.6201,eV/atom,
Zn$_{5}$B$_{3}$Rh$_{7}$,0.0,eV/atom,
Nb$_{7}$Co$_{6}$,0.0,eV/atom,
SiP$_{2}$O$_{7}$,5.8048,eV/atom,
Dy$_{5}$Ir$_{2}$,0.0,eV/atom,
CCl$_{2}$O,4.5857,eV/atom,
InAsF$_{6}$,3.3845,eV/atom,
HoZrSb,0.0,eV/atom,
Na$_{3}$PH$_{16}$(SO$_{2}$)$_{4}$,2.8701,eV/atom,
NdCl$_{2}$,0.0,eV/atom,
Y$_{2}$NCl$_{3}$,2.1398,eV/atom,
EuCuSb,0.0,eV/atom,
TlInTe$_{2}$,0.5208999999999993,eV/atom,
LuNiC$_{2}$,0.0,eV/atom,
KLu(WO$_{4}$)$_{2}$,3.2443,eV/atom,
Ba$_{3}$NaSi$_{23}$,0.0,eV/atom,
Ca$_{2}$Mn$_{2}$Si$_{4}$H$_{6}$O$_{17}$,0.16849999999999987,eV/atom,
NdInNi$_{2}$,0.0,eV/atom,
Mg$_{2}$SiNi$_{3}$,0.0,eV/atom,
LuNi$_{4}$Au,0.0,eV/atom,
Ge$_{3}$Pb$_{5}$O$_{11}$,2.5011,eV/atom,
K$_{4}$GeSe$_{4}$,2.0003,eV/atom,
CsPbI$_{3}$,2.5199,eV/atom,
SmTl,0.0,eV/atom,
Ba$_{2}$Ti(SiO$_{4}$)$_{2}$,3.7171000000000003,eV/atom,
Tl$_{2}$SiSe$_{3}$,1.6797,eV/atom,
KRb$_{2}$CrF$_{6}$,4.1253,eV/atom,
Tl(Mo$_{3}$S$_{4}$)$_{2}$,0.0,eV/atom,
Na$_{3}$LiWO$_{5}$,3.8186,eV/atom,
Hg$_{4}$P$_{2}$O$_{7}$,1.5817,eV/atom,
Mn$_{2}$P$_{2}$C$_{12}$S(O$_{2}$F$_{3}$)$_{4}$,3.0239000000000003,eV/atom,
ZnBP$_{2}$H$_{4}$NO$_{8}$,4.8340000000000005,eV/atom,
La$_{2}$BiN,0.0,eV/atom,
HoAgSe$_{2}$,1.2728000000000002,eV/atom,
Pb(ClO$_{2}$)$_{2}$,1.1622,eV/atom,
Ba$_{5}$Yb$_{8}$Zn$_{4}$O$_{21}$,0.0,eV/atom,
CaO,3.6344000000000003,eV/atom,
SiO$_{2}$,5.6372,eV/atom,
BaZnF$_{4}$,4.5489,eV/atom,
Ba$_{2}$PdF$_{6}$,1.6786999999999999,eV/atom,
SrHfO$_{3}$,3.9571,eV/atom,
Hf(CoGe)$_{6}$,0.0,eV/atom,
CoSiC$_{4}$Cl$_{3}$O$_{4}$,3.9118,eV/atom,
Cd$_{2}$P$_{3}$I,1.0992000000000002,eV/atom,
Li$_{2}$S,3.8953999999999995,eV/atom,
SbRhS,0.9648999999999992,eV/atom,
ZnCd$_{3}$Se$_{4}$,0.6262,eV/atom,
Eu$_{4}$As$_{2}$O,0.0,eV/atom,
CeSi$_{2}$Ni,0.0,eV/atom,
KCa$_{4}$B$_{22}$H$_{18}$ClO$_{46}$,5.5100999999999996,eV/atom,
LaFeSb$_{2}$,0.0,eV/atom,
ZrGaAu,0.0,eV/atom,
Fe$_{3}$N,0.0,eV/atom,
BaIrO$_{3}$,0.0,eV/atom,
Co$_{2}$(GeS)$_{3}$,0.5346000000000002,eV/atom,
BaB$_{2}$F$_{8}$,8.043,eV/atom,
TiAlAu$_{2}$,0.0,eV/atom,
K$_{2}$FeH$_{8}$(SO$_{6}$)$_{2}$,4.4501,eV/atom,
EuMgGe,0.0,eV/atom,
AlPPt$_{5}$,0.0,eV/atom,
Na$_{4}$Cd$_{2}$Si$_{3}$O$_{10}$,2.7504999999999997,eV/atom,
ReS$_{2}$,1.4428,eV/atom,
ScH$_{6}$N$_{2}$Cl$_{3}$,3.8715,eV/atom,
LiZrSe$_{2}$,0.0,eV/atom,
Fe$_{3}$B$_{7}$ClO$_{13}$,2.8149000000000006,eV/atom,
NbAgO$_{3}$,1.7878999999999998,eV/atom,
GdInPt$_{4}$,0.0,eV/atom,