formula,Property band_gap,Property band_gap units,Property SMILES
GdCoO$_{3}$,0.17539999999999978,eV/atom,
PrPt,0.0,eV/atom,
Tl$_{2}$SeO$_{4}$,3.3122,eV/atom,
Ba$_{5}$(InSb$_{3}$)$_{2}$,0.0,eV/atom,
NiP$_{2}$,0.5442,eV/atom,
Ga$_{2}$AsRh$_{5}$,0.0,eV/atom,
KUClO$_{3}$,1.7303000000000002,eV/atom,
Y$_{2}$Ge$_{5}$Ir$_{3}$,0.0,eV/atom,
Dy(TiGa$_{2}$)$_{2}$,0.0,eV/atom,
CsSmZnTe$_{3}$,1.6885,eV/atom,
LiEu$_{2}$Ge$_{3}$,0.0,eV/atom,
CS$_{3}$N$_{4}$,1.9381,eV/atom,N#CN=S1SNSN1
Cl$_{2}$,2.2452,eV/atom,[Cl]
Nb$_{3}$Cr,0.0,eV/atom,
SmCdGa,0.0,eV/atom,
TmTlSe$_{2}$,2.105,eV/atom,
Ba(TeO$_{3}$)$_{2}$,1.7482000000000002,eV/atom,
CsMnCl$_{3}$,1.4873,eV/atom,
Al$_{7}$(TlS$_{4}$)$_{3}$,2.7930000000000006,eV/atom,
TaFe$_{2}$,0.0,eV/atom,
SbO$_{2}$,1.9056999999999995,eV/atom,
CeAlPd,0.0,eV/atom,
SiO$_{2}$,1.36,eV/atom,
Sm$_{5}$Br$_{11}$,0.0,eV/atom,
CrB$_{4}$,0.0,eV/atom,
SnPO$_{3}$,0.6438999999999999,eV/atom,
NaCa$_{2}$TiSi$_{2}$O$_{8}$F,3.7375,eV/atom,
Cu$_{5}$Bi$_{2}$(B$_{2}$O$_{7}$)$_{2}$,0.03869999999999996,eV/atom,
Ti$_{3}$Si,0.0,eV/atom,
DyCuAs$_{2}$,0.0,eV/atom,
Eu$_{8}$C$_{4}$I$_{9}$N$_{7}$,0.6649000000000003,eV/atom,
Eu$_{2}$Cu$_{6}$P$_{5}$,0.0,eV/atom,
Sr$_{2}$Ru$_{3}$O$_{10}$,0.0,eV/atom,
NaPrTe$_{2}$,1.0596999999999999,eV/atom,
PrSbSe,0.23859999999999992,eV/atom,
LaCuS$_{2}$,1.2324000000000002,eV/atom,
TiS$_{2}$,0.03840000000000021,eV/atom,
MnH$_{2}$(SeO$_{4}$)$_{2}$,2.1118,eV/atom,
RbI,3.777,eV/atom,
LiLa$_{4}$AuO$_{8}$,1.6583000000000006,eV/atom,
CeCoGe,0.0013999999999994017,eV/atom,
Li$_{5}$AlO$_{4}$,4.662000000000001,eV/atom,
TaAg$_{7}$S$_{6}$,0.5110000000000001,eV/atom,
Ti(NO$_{3}$)$_{4}$,2.8211,eV/atom,
HoNi$_{5}$,0.0,eV/atom,
Th(CuSn)$_{2}$,0.0,eV/atom,
Cs$_{2}$PtBr$_{6}$,1.433,eV/atom,
YbNiGe$_{2}$,0.0,eV/atom,
RbAg(NO$_{3}$)$_{2}$,2.4757,eV/atom,
Cr(ClO)$_{2}$,2.42,eV/atom,
Ca$_{3}$In$_{2}$(SiO$_{4}$)$_{3}$,3.668,eV/atom,
SiRh,0.0,eV/atom,
Mn$_{3}$B$_{7}$IO$_{13}$,3.7514,eV/atom,
Cu$_{5}$Si$_{2}$S$_{7}$,0.0,eV/atom,
Sr$_{2}$YCu$_{3}$(PbO$_{4}$)$_{2}$,0.0,eV/atom,
Na$_{2}$InNiF$_{7}$,4.1625,eV/atom,
Ce$_{2}$In$_{5}$Pd$_{4}$,0.0,eV/atom,
Mn(GaS$_{2}$)$_{2}$,0.41090000000000027,eV/atom,
KU$_{2}$(PO$_{4}$)$_{3}$,0.008500000000000174,eV/atom,
CrAs,0.0,eV/atom,
Ba$_{2}$Cu(PO$_{4}$)$_{2}$,0.25849999999999995,eV/atom,
Na$_{3}$LiBe$_{2}$F$_{8}$,6.9864,eV/atom,
ErCd$_{2}$Cu,0.0,eV/atom,
TmGePt,0.0,eV/atom,
AgAsS$_{2}$,1.5178999999999996,eV/atom,
SrSnO$_{3}$,0.9698000000000002,eV/atom,
ScMnO$_{3}$,0.0,eV/atom,
Eu$_{2}$ZnGe$_{3}$,0.0,eV/atom,
Mn$_{2}$O$_{5}$,0.0,eV/atom,
K$_{3}$Nb$_{2}$S$_{11}$,1.4262000000000001,eV/atom,
La$_{21}$Fe$_{8}$Bi$_{7}$C$_{12}$,0.0,eV/atom,
ScTe,0.0,eV/atom,
Yb$_{3}$GaC,0.0,eV/atom,
Cd$_{2}$P$_{3}$Cl,1.2107,eV/atom,
CsGdS$_{2}$,1.7428,eV/atom,
Tb$_{5}$Ge$_{3}$C,0.0,eV/atom,
Pr$_{2}$(ZnGe$_{2}$)$_{3}$,0.0,eV/atom,
CdCu$_{2}$SnTe$_{4}$,0.0,eV/atom,
MgTe,0.43430000000000035,eV/atom,
NaCa$_{2}$Si$_{3}$HO$_{9}$,4.8456,eV/atom,
GdGeIr,0.0,eV/atom,
MgSiO$_{3}$,4.5304,eV/atom,
CaAl$_{2}$SiO$_{6}$,4.605699999999999,eV/atom,
PtN$_{2}$,0.0,eV/atom,
InNi$_{3}$N,0.0,eV/atom,
MgP$_{2}$(H$_{8}$O$_{5}$)$_{2}$,5.6498,eV/atom,
H$_{2}$Ru$_{4}$(CO)$_{13}$,1.7978999999999998,eV/atom,
EuMgPb,0.0,eV/atom,
Ca$_{5}$Hg$_{3}$,0.0028999999999999027,eV/atom,
Na$_{3}$Fe(PO$_{4}$)$_{2}$,2.4126000000000003,eV/atom,
CeAl$_{4}$Si$_{2}$Ir,0.0,eV/atom,
K$_{2}$H$_{6}$PtC$_{4}$N$_{4}$O$_{3}$,1.8723,eV/atom,
ScInPd$_{2}$,0.0,eV/atom,
BaCuSn$_{2}$,0.0,eV/atom,
DyIr$_{3}$,0.0,eV/atom,
HfSiW,0.0,eV/atom,
BiS,0.0,eV/atom,
Ni$_{3}$(AsO$_{4}$)$_{2}$,2.1053999999999995,eV/atom,
Sr$_{3}$Fe$_{2}$O$_{7}$,0,eV/atom,
HgS,1.7067999999999999,eV/atom,
NaFe(SeO$_{4}$)$_{2}$,1.8817,eV/atom,
SrBi$_{3}$,0.0,eV/atom,
Cs$_{5}$GeAs$_{3}$,0.8261999999999996,eV/atom,
CaLaGaO$_{4}$,3.4555,eV/atom,
NbCrSi,0.0,eV/atom,
Ba$_{3}$Nb$_{5}$O$_{15}$,0.0,eV/atom,
Na$_{2}$CO$_{3}$,3.1421,eV/atom,
CuPt$_{7}$,0.0,eV/atom,
C$_{2}$S(OF)$_{4}$,6.1791,eV/atom,O=C(F)OS(=O)(=O)C(F)(F)F
Rb$_{3}$Pr$_{2}$(NO$_{3}$)$_{9}$,3.4083,eV/atom,
InBiO$_{3}$,0.049599999999999866,eV/atom,
Al$_{2}$O$_{3}$,0.6822999999999997,eV/atom,
GdCrO$_{3}$,2.4135999999999997,eV/atom,
Al$_{2}$Si$_{3}$(HO$_{4}$)$_{3}$,0.0,eV/atom,
GaN$_{5}$O$_{14}$,1.1872,eV/atom,
NaAg$_{2}$,0.0,eV/atom,
AsPd$_{2}$,0.0,eV/atom,
Tl$_{4}$Fe(CN)$_{6}$,2.7414,eV/atom,
DyHg$_{2}$,0.0,eV/atom,
LaTiNbBi$_{2}$O$_{9}$,1.7236000000000002,eV/atom,
Al$_{2}$PbS$_{4}$,2.5887000000000002,eV/atom,
NaTeH$_{12}$(CO)$_{3}$,2.0122,eV/atom,
CeAlO$_{3}$,0.0,eV/atom,
YbCdNi$_{4}$,0.0,eV/atom,
BaTiO$_{3}$,2.5441000000000003,eV/atom,
NdGa$_{2}$Ni,0.0,eV/atom,
U$_{2}$Cu$_{2}$As$_{3}$O,0.0,eV/atom,
Sn(PbO$_{2}$)$_{2}$,2.0634000000000006,eV/atom,
SrDy$_{2}$CuO$_{5}$,0.0,eV/atom,
Sr$_{3}$CuIrO$_{6}$,0.0,eV/atom,
YMnSi,0.0,eV/atom,
Rb$_{5}$SiAs$_{3}$,0.3756999999999999,eV/atom,
TiSnPt,0.7908,eV/atom,
BaNpO$_{3}$,0.0,eV/atom,
Gd$_{3}$Se$_{2}$NO,1.6596000000000002,eV/atom,
CuH$_{8}$C$_{4}$(NO$_{3}$)$_{2}$,0.0,eV/atom,
U$_{3}$Si,0.0,eV/atom,
CsCo(CO)$_{4}$,3.8385,eV/atom,
CsCu(BiS$_{2}$)$_{2}$,0.8320000000000003,eV/atom,
Ir,0.0,eV/atom,
TmFe$_{2}$,0.0,eV/atom,
K$_{2}$S$_{2}$O$_{7}$,5.2193,eV/atom,
NaClO$_{4}$,5.4553,eV/atom,
K$_{2}$TeS$_{3}$,2.3316,eV/atom,
CsPt$_{2}$Se$_{3}$,1.0491000000000001,eV/atom,
UMo$_{13}$P$_{9}$,0.0,eV/atom,
BiIO,1.4833000000000003,eV/atom,
AgBi$_{3}$S$_{5}$,0.5219999999999994,eV/atom,
Rb$_{5}$(CoO$_{2}$)$_{2}$,1.0184,eV/atom,
K$_{3}$Cr$_{11}$S$_{18}$,0.3485000000000005,eV/atom,
PrAs,0.0,eV/atom,
Sr,0.0,eV/atom,
RbAlBP$_{2}$HO$_{9}$,5.2635,eV/atom,
Yb(CoSi)$_{2}$,0.0,eV/atom,
NdRh$_{3}$,0.0,eV/atom,
ZnBr$_{2}$,3.2203,eV/atom,
NaSiBO$_{4}$,5.4139,eV/atom,
Pb$_{2}$Au,0.0,eV/atom,
Mg$_{16}$Si$_{8}$HO$_{32}$,0.0,eV/atom,
Ca(GaO$_{2}$)$_{2}$,2.9772,eV/atom,
BN,4.4506,eV/atom,
CaV$_{2}$P$_{2}$O$_{9}$,1.5166000000000004,eV/atom,
RbNd$_{2}$I$_{5}$,0.0,eV/atom,
Dy$_{5}$Sn$_{11}$,0.0,eV/atom,
CdCuSb,0.0,eV/atom,
ThAl$_{2}$,0.0,eV/atom,
Ho(CoGe)$_{6}$,0.0,eV/atom,
Ca$_{4}$Mg$_{4}$Fe$_{3}$H$_{22}$,1.4456000000000002,eV/atom,
HfCuSn,0.0,eV/atom,
TlFeSe$_{2}$,0.0,eV/atom,
Sr$_{2}$GdRuO$_{6}$,0.1634000000000002,eV/atom,
DyAl$_{4}$Ni,0.0,eV/atom,
Hg$_{2}$Rh,0.0,eV/atom,
CaYbInS$_{4}$,0.0,eV/atom,
Ca$_{3}$La$_{3}$(BO$_{3}$)$_{5}$,4.1370000000000005,eV/atom,
CdI$_{2}$,2.3587,eV/atom,
NiAgO$_{2}$,0,eV/atom,
ZrAs,0.0,eV/atom,
Zr$_{6}$Al$_{16}$Ru$_{7}$,0.0,eV/atom,
Cs$_{3}$AlP$_{2}$,0.9831000000000003,eV/atom,
HoCuGe,0.0,eV/atom,
LaGe,0.0,eV/atom,
NiH$_{8}$(IO$_{5}$)$_{2}$,3.6538,eV/atom,
KCdF$_{3}$,3.1006,eV/atom,
P$_{4}$S$_{7}$,2.7617,eV/atom,
NaZnP$_{2}$HO$_{7}$,4.510800000000001,eV/atom,
Er$_{2}$CdGe$_{2}$,0.0,eV/atom,
NbCl$_{3}$O,2.8024,eV/atom,
UInAu$_{2}$,0.0,eV/atom,
Sr$_{2}$LiReO$_{6}$,1.6795999999999998,eV/atom,
NaNd$_{2}$RuO$_{6}$,0.0,eV/atom,
RbGaH$_{2}$,1.3521,eV/atom,
HfIN,1.0064999999999995,eV/atom,
LaBRh$_{3}$,0.0,eV/atom,
TmOs$_{2}$,0.0,eV/atom,
Mn$_{3}$Ge,0.0,eV/atom,
Tl$_{2}$Pt$_{2}$O$_{7}$,0.6955,eV/atom,
Hg$_{2}$Br$_{2}$N,0.0,eV/atom,
KN,0.0,eV/atom,
K$_{3}$AlH$_{6}$,1.7988000000000002,eV/atom,
K$_{2}$Cu(PS$_{3}$)$_{3}$,1.9435,eV/atom,
NbI$_{3}$,0.0,eV/atom,
Dy(Co$_{2}$B)$_{6}$,0.0,eV/atom,
Na$_{2}$Si$_{2}$O$_{5}$,4.4186,eV/atom,
Sr$_{2}$Cu$_{2}$Ni(SO)$_{2}$,0.0049000000000001265,eV/atom,
Na$_{2}$MnGaF$_{7}$,2.7127,eV/atom,
Sr$_{5}$Nb$_{5}$O$_{16}$,0.0,eV/atom,
Sr$_{4}$Pt$_{4}$PbO$_{11}$,0.5728999999999997,eV/atom,
Na$_{5}$Te$_{2}$H$_{36}$AuO$_{28}$,2.4632,eV/atom,
Mg(CO$_{3}$)$_{2}$,0.32310000000000005,eV/atom,[Mg+2].O=C([O-])C(=O)[O-].O.O
Ca$_{5}$(SnAs$_{3}$)$_{2}$,0.24129999999999985,eV/atom,
Cu$_{4}$Si$_{2}$NiS$_{7}$,0.0,eV/atom,
AlPO$_{4}$,5.4968,eV/atom,
Sm$_{2}$Zn$_{17}$,0.0,eV/atom,
Cs$_{2}$SiS$_{3}$,2.9793000000000003,eV/atom,
TbYb$_{2}$PrS$_{6}$,1.2724000000000002,eV/atom,
NaPb,0.0,eV/atom,
YbPO$_{4}$,0.0,eV/atom,
Pr$_{3}$CuSiSe$_{7}$,1.3983999999999996,eV/atom,
CsAgCl$_{3}$,0.0,eV/atom,
TmP,0.0,eV/atom,
Tb(SiNi$_{5}$)$_{2}$,0.0,eV/atom,
SBr,2.2294,eV/atom,
ErFeGe$_{2}$,0.0,eV/atom,
ZnS,2.021,eV/atom,
CeSe,0.0,eV/atom,
Sr$_{3}$AlO$_{4}$F,4.0449,eV/atom,
Zn(InS$_{2}$)$_{2}$,0.19399999999999995,eV/atom,
AgH$_{36}$S$_{8}$Br$_{2}$(N$_{3}$O$_{4}$)$_{3}$,3.1716,eV/atom,
Bi$_{8}$AsAuCl$_{9}$,1.3163,eV/atom,
ZnCrH$_{15}$N$_{5}$Cl$_{4}$F,3.8246,eV/atom,
Nd(Co$_{2}$B)$_{6}$,0.0,eV/atom,
CoH$_{2}$(SN)$_{4}$,0.0,eV/atom,
CsGaSe$_{3}$,1.859,eV/atom,
SrBPO$_{5}$,5.3835999999999995,eV/atom,
LaScSb,0.0,eV/atom,
SrPHO$_{4}$,5.2009,eV/atom,
VPO$_{5}$,2.2702999999999998,eV/atom,
KLa(PSe$_{3}$)$_{2}$,1.9746999999999995,eV/atom,
La$_{20}$C$_{20}$Cl$_{13}$,0.0,eV/atom,
BaTbAgS$_{3}$,1.0051,eV/atom,
S$_{5}$N$_{2}$ClO$_{6}$,1.3105000000000002,eV/atom,
Nd$_{3}$Si$_{2}$ClO$_{8}$,5.2091,eV/atom,
Ca$_{2}$Bi$_{2}$O$_{5}$,2.4956999999999994,eV/atom,
MgH$_{2}$,2.0783,eV/atom,
Yb(SiAg)$_{2}$,0,eV/atom,
Zr$_{2}$NiAs$_{2}$,0.0,eV/atom,
K$_{3}$Na$_{2}$LiTeO$_{6}$,2.2125999999999997,eV/atom,
CaU(PO$_{4}$)$_{2}$,0.25289999999999946,eV/atom,
SbTe,0.03479999999999972,eV/atom,
NbInSe$_{2}$,0.0,eV/atom,
Y$_{6}$C$_{2}$I$_{7}$,0.032399999999999984,eV/atom,
Tb$_{7}$CoI$_{12}$,0.2706999999999997,eV/atom,
NaC$_{2}$,0.0,eV/atom,
MgCu$_{4}$Sn,0.0,eV/atom,
AgIO$_{3}$,2.4375,eV/atom,
Y$_{2}$WO$_{6}$,3.6851000000000003,eV/atom,
Ni$_{3}$Sn,0.0,eV/atom,
Bi$_{2}$Pt$_{2}$O$_{7}$,0.7881,eV/atom,
NdMg$_{2}$Ag,0.0,eV/atom,
TlGaBr$_{4}$,3.5506,eV/atom,
Ti$_{5}$Se$_{4}$,0.0,eV/atom,
La(CoSi)$_{2}$,0.0,eV/atom,
Ca$_{2}$MnO$_{4}$,0.371,eV/atom,
Se$_{2}$NCl$_{3}$,1.4143,eV/atom,
Na$_{3}$AlP$_{8}$O$_{23}$,5.2445,eV/atom,
CoP$_{2}$H$_{17}$N$_{4}$O$_{9}$,1.1817,eV/atom,
Ca(CuSi)$_{2}$,0.0,eV/atom,
Nd$_{4}$Se$_{3}$O$_{4}$,1.3232999999999997,eV/atom,
KNaPrTaO$_{5}$,3.4550000000000005,eV/atom,
Al$_{4}$Cu$_{9}$,0.0,eV/atom,
Na$_{3}$B$_{5}$H$_{4}$O$_{11}$,4.6917,eV/atom,
LuCuSn,0.0,eV/atom,
VFeO$_{4}$,2.0493,eV/atom,
Mn$_{2}$Sb,0.0,eV/atom,
Pr$_{2}$W$_{2}$O$_{9}$,3.4973,eV/atom,
KCSN,4.1109,eV/atom,
K$_{3}$La(PO$_{4}$)$_{2}$,4.484,eV/atom,
Gd(AlSi)$_{2}$,0.0,eV/atom,
Zr(Fe$_{2}$P)$_{2}$,0.0,eV/atom,
Na$_{2}$Mn$_{3}$Cl$_{8}$,1.9223,eV/atom,
LiErGe,0.0,eV/atom,
Tm(Al$_{2}$Fe)$_{4}$,0.0,eV/atom,
ZnH$_{4}$(CO$_{3}$)$_{2}$,3.1831,eV/atom,[Zn+2].O=C([O-])C(=O)[O-].O.O
YAu,0.0,eV/atom,
Ce$_{5}$C$_{2}$Br$_{9}$,0.0,eV/atom,
Ta$_{2}$Cd(P$_{2}$O$_{7}$)$_{3}$,3.5606999999999998,eV/atom,[Cd+2].[Ta+5].[Ta+5].O=P([O-])([O-])OP(=O)([O-])[O-].O=P([O-])([O-])OP(=O)([O-])[O-].O=P([O-])([O-])OP(=O)([O-])[O-]
C,1.2268,eV/atom,[C]
ZrGaPt,0.0,eV/atom,
CsHgF$_{3}$,0.7228,eV/atom,
YCrO$_{4}$,0.26760000000000006,eV/atom,
AlPO$_{4}$,5.6341,eV/atom,
Zn$_{3}$TeO$_{6}$,1.0627999999999997,eV/atom,
YSi$_{2}$Ru$_{3}$,0.0,eV/atom,
NO,0.5648,eV/atom,
CuH$_{8}$C$_{2}$NCl$_{3}$,0.20359999999999998,eV/atom,
Ti$_{2}$O,0.0,eV/atom,
Al$_{2}$O$_{3}$,5.313199999999999,eV/atom,
Mg$_{3}$P$_{4}$H$_{48}$(NO$_{15}$)$_{2}$,5.400499999999999,eV/atom,
Cr$_{2}$B,0.0,eV/atom,
La$_{5}$Si$_{3}$,0.0,eV/atom,
AlH$_{3}$,3.1866,eV/atom,
SrCu(Si$_{2}$O$_{5}$)$_{2}$,0.8594999999999997,eV/atom,
NaIO$_{3}$,3.6962,eV/atom,
CIF$_{3}$,3.6942,eV/atom,
LiTaGeO$_{5}$,3.7398,eV/atom,
Ti$_{6}$Sn$_{5}$,0.0,eV/atom,
Tl$_{2}$PSe$_{3}$,1.5420999999999996,eV/atom,
YbSe,1.9621,eV/atom,
Cs$_{2}$GeTe$_{4}$,0.5657999999999999,eV/atom,
NbRh,0.0,eV/atom,
AlPt$_{2}$,0.0,eV/atom,
Yb$_{2}$AlB$_{6}$,0.0,eV/atom,
NaH$_{8}$O$_{5}$,3.5073,eV/atom,
RbMoPClO$_{5}$,1.9978,eV/atom,
KErTe$_{2}$,1.3347000000000002,eV/atom,
Nd$_{2}$Fe$_{17}$,0.0,eV/atom,
CuBi$_{5}$PbS$_{9}$,0.5931999999999995,eV/atom,
Tb$_{2}$SnAu$_{2}$,0.0,eV/atom,
KPbO$_{2}$,1.4532000000000003,eV/atom,
YTlPd,0.0,eV/atom,
Rb$_{2}$Cr$_{4}$Cu(HO$_{4}$)$_{4}$,0.7878,eV/atom,
Gd$_{4}$P$_{6}$H$_{16}$O$_{23}$,2.8633,eV/atom,
Sm$_{5}$Ir$_{2}$,0.0,eV/atom,
Pd$_{3}$N,0.0,eV/atom,
MnTe,0.0,eV/atom,
NaSrAlF$_{6}$,6.9765999999999995,eV/atom,
PrIn$_{2}$Pd,0.0,eV/atom,
SmAlO$_{3}$,4.7681,eV/atom,
Rb$_{2}$(ReSe$_{2}$)$_{3}$,1.0461,eV/atom,
Ce(GePt)$_{2}$,0.005600000000000271,eV/atom,
Ce,0.0,eV/atom,
Ni$_{2}$Mo$_{3}$N,0.0,eV/atom,
KPrF$_{4}$,7.1314,eV/atom,
Ba$_{4}$Gd$_{2}$Cd$_{3}$S$_{10}$,1.5844,eV/atom,
U$_{2}$PdS$_{4}$,0.0,eV/atom,
In$_{2}$HgTe$_{4}$,0.5270999999999999,eV/atom,
KPb$_{2}$,0.0,eV/atom,
Ca$_{3}$Al$_{2}$H$_{6}$S(OF)$_{8}$,5.7404,eV/atom,
PbSO$_{4}$,3.8567,eV/atom,
Eu$_{3}$(GaAs$_{2}$)$_{2}$,0.08829999999999982,eV/atom,
GaNi$_{2}$,0.0,eV/atom,
CsI,3.8345000000000002,eV/atom,
LiBe,0.0,eV/atom,
CsK(ClO$_{4}$)$_{2}$,5.5306999999999995,eV/atom,
Ge$_{23}$Mo$_{13}$,0.0,eV/atom,
La$_{3}$Pt$_{4}$,0.0,eV/atom,
ReNF$_{6}$,2.3175999999999997,eV/atom,
SnF$_{2}$,3.2628999999999997,eV/atom,
Ce$_{2}$Zn$_{2}$Cu$_{5}$,0.0,eV/atom,
Co$_{2}$Si,0.0,eV/atom,
SiO$_{2}$,0.0,eV/atom,
K$_{3}$La$_{2}$(NO$_{3}$)$_{9}$,3.466,eV/atom,
CsIn(PO$_{3}$)$_{4}$,4.3152,eV/atom,
Er$_{3}$(CuSn)$_{4}$,0.0,eV/atom,
DyMgSn,0.0,eV/atom,
K$_{9}$Co$_{2}$S$_{7}$,0.0,eV/atom,
TcN,0.0,eV/atom,
Na$_{3}$Li$_{3}$Co$_{2}$F$_{12}$,1.8825999999999998,eV/atom,
BaCdAsF,0.9570000000000003,eV/atom,
Rb$_{2}$FeF$_{5}$,3.693,eV/atom,
HfV$_{2}$O$_{7}$,2.6491,eV/atom,
TmAlSi,0.0,eV/atom,
NaNbS$_{2}$,0.6250999999999998,eV/atom,
V$_{2}$Cd(P$_{2}$O$_{7}$)$_{2}$,1.9543999999999997,eV/atom,
SrH$_{12}$C$_{4}$S$_{4}$(NO$_{4}$)$_{2}$,5.6657,eV/atom,[Sr+2].O=S(=O)([N-]S(=O)(=O)C)C.O=S(=O)([N-]S(=O)(=O)C)C
ZnTe,1.1007000000000002,eV/atom,
K$_{2}$Cd$_{3}$Te$_{4}$,1.438,eV/atom,
AgAs(S$_{8}$F$_{3}$)$_{2}$,2.7366,eV/atom,
CsF,5.2602,eV/atom,
Fe$_{3}$BO$_{5}$,0.9327000000000001,eV/atom,
Sc$_{11}$(AlGe$_{4}$)$_{2}$,0.0,eV/atom,
SrIn$_{3}$,0.0,eV/atom,
ThB$_{4}$,0.0,eV/atom,
EuSnF$_{7}$,0.037800000000000056,eV/atom,
HoCd$_{3}$,0.0,eV/atom,
K$_{2}$Ba(NO$_{2}$)$_{4}$,2.1776999999999997,eV/atom,
CeP$_{3}$H$_{8}$O$_{7}$,0.1740999999999997,eV/atom,
TlCl,2.5179,eV/atom,
LuPO$_{4}$,5.9556000000000004,eV/atom,
TlV$_{3}$(CrS$_{4}$)$_{2}$,0.0,eV/atom,
Er$_{2}$Si$_{3}$Rh,0.0,eV/atom,
Cs$_{2}$ZrCl$_{6}$,3.6365,eV/atom,
CaH$_{2}$(CO$_{2}$)$_{2}$,4.6469,eV/atom,
K$_{3}$Cr(HO)$_{6}$,3.191,eV/atom,
Pd$_{2}$N,0.0,eV/atom,
CeIr$_{3}$,0.0,eV/atom,
BaGdCl$_{5}$,1.9440000000000002,eV/atom,
Tm$_{2}$Cu$_{2}$O$_{5}$,0.30810000000000004,eV/atom,
S$_{2}$N$_{2}$O,1.9159999999999997,eV/atom,
Ag$_{2}$SO$_{3}$,2.2506,eV/atom,
ReSbH$_{4}$O$_{7}$,2.834,eV/atom,
Ba(MnBi)$_{2}$,0.0,eV/atom,
Cr$_{21}$(WC$_{3}$)$_{2}$,0.0,eV/atom,
Er(CrSi)$_{2}$,0.0,eV/atom,
SbSeI,1.3775999999999997,eV/atom,
HfSiSe,0.0,eV/atom,
Dy$_{2}$Si$_{5}$Ni$_{3}$,0.0,eV/atom,
Fe$_{2}$P$_{4}$Pb$_{3}$O$_{16}$,2.4153000000000002,eV/atom,
Ca$_{4}$P$_{2}$O$_{9}$,4.4843,eV/atom,
K$_{2}$MnO$_{4}$,0.43810000000000004,eV/atom,
MnH$_{5}$SO$_{7}$,0.6941,eV/atom,
Rb$_{3}$Al$_{2}$(PO$_{4}$)$_{3}$,4.4173,eV/atom,
Er$_{6}$CoTe$_{2}$,0.0,eV/atom,
SeOF$_{2}$,4.0832999999999995,eV/atom,
Co(IN$_{3}$)$_{2}$,0.0,eV/atom,
Hf$_{4}$FeP,0.0,eV/atom,
SmMn$_{4}$(CuO$_{4}$)$_{3}$,0.0,eV/atom,
TmC$_{2}$,0.0,eV/atom,
H$_{14}$C$_{3}$NF$_{5}$,7.3363,eV/atom,
Sc$_{3}$GaC,0.0,eV/atom,
Ca$_{4}$As$_{2}$O,1.2134999999999998,eV/atom,
Cs$_{2}$Ga$_{2}$B$_{2}$O$_{7}$,3.7986,eV/atom,
YbSn,0.0,eV/atom,
YCoSi$_{2}$,0.0,eV/atom,
Sr$_{2}$Ti$_{2}$Sb$_{2}$OF$_{2}$,0.0,eV/atom,
La$_{2}$Au,0.0,eV/atom,
Hg$_{3}$(NO$_{4}$)$_{2}$,0.8579000000000001,eV/atom,
SrTb$_{2}$O$_{4}$,3.6621999999999995,eV/atom,
MnCo$_{2}$Si,0.0,eV/atom,
NaFeF$_{3}$,3.0099,eV/atom,
Fe$_{2}$GeO$_{4}$,1.4076999999999997,eV/atom,
GaCu$_{2}$,0.0,eV/atom,
Os$_{3}$C$_{8}$SO$_{8}$,1.4818,eV/atom,
KHCO$_{3}$,4.9715,eV/atom,
BaCeI$_{4}$,0.0,eV/atom,
Ba$_{2}$CaReO$_{6}$,0.0,eV/atom,
FeSeCl$_{7}$,1.3206,eV/atom,
CeMgZn$_{2}$,0.0,eV/atom,
Ba$_{2}$CaCr$_{2}$CuF$_{14}$,1.0019,eV/atom,
ZnS,2.027,eV/atom,
TmAg$_{2}$,0.0,eV/atom,
Pr$_{2}$Ta$_{2}$Cl$_{2}$O$_{7}$,3.0505,eV/atom,
Al(SiO$_{3}$)$_{2}$,3.0258000000000003,eV/atom,
RbHo(PO$_{3}$)$_{4}$,5.772500000000001,eV/atom,
K$_{2}$CuCl$_{3}$,2.0520000000000005,eV/atom,
Ag$_{2}$S,0.16080000000000005,eV/atom,
Na$_{2}$LiGaAs$_{2}$,0.6841999999999997,eV/atom,
Ca$_{2}$Ga$_{2}$Si(HO$_{4}$)$_{2}$,3.5111999999999997,eV/atom,
ThCuPO,0.0,eV/atom,
Hg,0.05619999999999999,eV/atom,
Na$_{2}$Be(SiO$_{3}$)$_{2}$,5.055,eV/atom,
Na$_{5}$NbO$_{5}$,2.6402,eV/atom,
Tb(BO$_{2}$)$_{3}$,4.9842,eV/atom,
Ba$_{3}$Tm(BO$_{3}$)$_{3}$,3.8435999999999995,eV/atom,
Ce$_{4}$Ga$_{5}$Br$_{2}$,0,eV/atom,
Na$_{2}$Cd(SO$_{4}$)$_{2}$,3.8287000000000004,eV/atom,
BaH$_{8}$C$_{6}$(N$_{3}$O$_{4}$)$_{2}$,4.5878,eV/atom,
Ce(SiRu)$_{2}$,0.0,eV/atom,
Tl,0.0,eV/atom,
Na$_{2}$Co(Si$_{2}$O$_{5}$)$_{2}$,3.0632000000000006,eV/atom,
Ho$_{2}$Sn$_{2}$O$_{7}$,2.6917,eV/atom,
CoCu$_{2}$SnSe$_{4}$,0.0,eV/atom,
Ce$_{2}$Zn$_{2}$Ni$_{5}$,0.01049999999999951,eV/atom,
BaAl$_{2}$(PO$_{5}$)$_{2}$,2.6121999999999996,eV/atom,
KNb$_{5}$O$_{13}$,2.3545000000000003,eV/atom,
FeH$_{10}$N$_{2}$Cl$_{5}$O,2.1988,eV/atom,
Mn$_{2}$CrSbO$_{6}$,1.7798999999999996,eV/atom,
Nd$_{2}$Sn$_{2}$O$_{7}$,2.6641000000000004,eV/atom,
Sr$_{8}$Al$_{7}$,0.0,eV/atom,
TaAsPCl$_{13}$,2.6094,eV/atom,
MgH$_{10}$SO$_{9}$,4.9785,eV/atom,
La$_{2}$AlNi$_{9}$H,0.0,eV/atom,
Eu$_{2}$Ga$_{3}$Ir,0.0,eV/atom,
NbAg$_{2}$(PS$_{4}$)$_{2}$,1.6183,eV/atom,
Cd$_{2}$Os(CN)$_{6}$,2.5374,eV/atom,
Ca$_{5}$(ReO$_{6}$)$_{2}$,2.1161000000000003,eV/atom,
LaBr,0.0,eV/atom,
Ba$_{2}$B$_{5}$ClO$_{9}$,5.2417,eV/atom,
Sr$_{4}$PdO$_{6}$,1.6164,eV/atom,
K$_{2}$Re$_{3}$C$_{2}$Se$_{5}$N$_{2}$,1.2751000000000001,eV/atom,
Fe$_{4}$Sn(CO)$_{16}$,2.4478,eV/atom,
InAgTe$_{2}$,0.06529999999999969,eV/atom,
Mn$_{7}$FeCl$_{3}$O$_{10}$,0.9382000000000001,eV/atom,
Ce(Mo$_{3}$S$_{4}$)$_{2}$,0.20500000000000007,eV/atom,
Mn$_{2}$InC$_{10}$ClO$_{10}$,2.454,eV/atom,
ZrSiS,0.0,eV/atom,
B$_{9}$H$_{8}$S,4.156,eV/atom,
Bi$_{2}$(SeO$_{3}$)$_{3}$,3.3926999999999996,eV/atom,
EuSnPd,0.0,eV/atom,
NbSi$_{2}$,0.0,eV/atom,
ScS,0.0,eV/atom,
Er$_{3}$Ge$_{4}$,0.0,eV/atom,
EuSe,0.0,eV/atom,
FeSb$_{2}$C$_{6}$(OF$_{2}$)$_{6}$,4.6082,eV/atom,
ThCoC$_{2}$,0.0,eV/atom,
Hf$_{3}$Rh$_{5}$,0.0,eV/atom,
ZrRu$_{2}$,0.0,eV/atom,
BaH$_{2}$I$_{2}$O$_{7}$,3.6479,eV/atom,
Ta$_{4}$O,0.0,eV/atom,
CsCrH$_{18}$Br$_{2}$N$_{6}$(ClO$_{4}$)$_{2}$,3.5666,eV/atom,
CdInS$_{2}$,0.0,eV/atom,
Yb(SiPt)$_{2}$,0,eV/atom,
Ba(TmTe$_{2}$)$_{2}$,0.7841,eV/atom,
Sr$_{2}$H$_{3}$NO$_{6}$,2.9549,eV/atom,
K$_{2}$FeCu(CN)$_{6}$,0.5028,eV/atom,
Ta$_{4}$Te$_{9}$I$_{4}$O,0.38119999999999976,eV/atom,
Cr$_{2}$Se$_{3}$,0.0,eV/atom,
Zr$_{2}$P$_{2}$O$_{9}$,4.1075,eV/atom,[Zr+4].[Zr+4].O=P([O-])([O-])OP(=O)([O-])[O-].O=P([O-])([O-])OP(=O)([O-])[O-]
K$_{3}$Nb$_{7}$O$_{19}$,2.1043000000000003,eV/atom,
CdI$_{2}$,2.355,eV/atom,
Zr$_{7}$Ni$_{10}$,0.0,eV/atom,
Nd$_{3}$PbC,0.013399999999999856,eV/atom,
TaRu,0.0,eV/atom,
CsNbO$_{3}$,3.319,eV/atom,
Sb$_{4}$OsC$_{6}$(O$_{3}$F$_{11}$)$_{2}$,4.434,eV/atom,
Ca$_{3}$(AlN$_{2}$)$_{2}$,2.1954000000000002,eV/atom,
VN,0.0,eV/atom,
TaS$_{2}$,0.0,eV/atom,
Gd$_{2}$AlCo$_{2}$,0.0,eV/atom,
CdI$_{2}$,2.3691000000000004,eV/atom,
XeN$_{2}$(OF$_{4}$)$_{2}$,2.1924,eV/atom,
VCl$_{2}$,1.2546000000000004,eV/atom,
Ce$_{7}$(GePd$_{2}$)$_{2}$,0.0,eV/atom,
La$_{3}$(TaN$_{3}$)$_{2}$,0,eV/atom,
TmSn$_{3}$,0.0,eV/atom,
Rb$_{2}$NaMn(CN)$_{6}$,0.0,eV/atom,
RbFe$_{2}$Se$_{3}$,0.0,eV/atom,
ZrTe$_{3}$,0.0,eV/atom,
Tm$_{6}$Al$_{7}$Cu$_{16}$,0.0,eV/atom,
Al$_{2}$(WO$_{4}$)$_{3}$,4.5569,eV/atom,
Ce$_{4}$(SiS$_{4}$)$_{3}$,0.0,eV/atom,
PuTe$_{2}$,0.0,eV/atom,
LiCdCoF$_{6}$,0.0,eV/atom,
NbH$_{2}$,0.0,eV/atom,
Rb$_{2}$Cu$_{2}$(MoO$_{4}$)$_{3}$,0.5535,eV/atom,
Zn$_{2}$As$_{2}$PbO$_{10}$,0.0,eV/atom,
LiInO$_{2}$,1.8142999999999998,eV/atom,
Ba$_{14}$Na$_{14}$CaN$_{6}$,0.0,eV/atom,
Na$_{4}$Ga$_{3}$Si$_{3}$ClO$_{12}$,4.1073,eV/atom,
Na$_{2}$MgSi$_{5}$O$_{12}$,4.8278,eV/atom,
NiGe$_{2}$,0.018199999999999328,eV/atom,
SmRh$_{2}$,0.0,eV/atom,
NaCr$_{2}$In(H$_{2}$O$_{5}$)$_{2}$,2.7052,eV/atom,
TlCdTe$_{2}$,0.0,eV/atom,
LaLuO$_{3}$,4.452500000000001,eV/atom,
NbSbF$_{10}$,4.3499,eV/atom,
Nb$_{3}$Fe,0.0,eV/atom,
Os,0.0,eV/atom,
Sb$_{2}$H$_{8}$Pt(OF$_{3}$)$_{4}$,1.9862000000000002,eV/atom,
LaBO$_{3}$,4.0196,eV/atom,
Gd$_{2}$CdPd$_{2}$,0.0,eV/atom,
GdBi$_{2}$ClO$_{4}$,0.8529,eV/atom,
Zr$_{6}$Al$_{2}$Co,0.0,eV/atom,
CsScP$_{2}$(HO$_{4}$)$_{2}$,4.8328999999999995,eV/atom,
Ba$_{4}$LiCu(CO$_{5}$)$_{2}$,0.9264999999999999,eV/atom,
U$_{2}$MoO$_{8}$,0.0,eV/atom,
Sc$_{57}$Rh$_{13}$,0.0,eV/atom,
SbPdS,0.0,eV/atom,
NdF$_{3}$,7.6164000000000005,eV/atom,
ZrAg,0.0,eV/atom,
Si(PH$_{2}$)$_{4}$,3.9290000000000003,eV/atom,PPPP[SiH3]
YBi$_{2}$BrO$_{4}$,1.3350000000000004,eV/atom,
Tm$_{3}$SnC,0.11080000000000023,eV/atom,
YbSnPd,0.0,eV/atom,