formula,Property band_gap,Property band_gap units,Property SMILES
Na$_{2}$Li$_{3}$GaO$_{4}$,3.2395,eV/atom,[Li+].[Li+].[Li+].[Na+].[Na+].O=C([O-])C1=CC(O)=C(O)C(O)=C1.O=C([O-])C1=CC(O)=C(O)C(O)=C1.O=C([O-])C1=CC(O)=C(O)C(O)=C1.O=C([O-])C1=CC(O)=C(O)C(O)=C1.O=C([O-])C1=CC(O)=C(O)C(O)=C1
Zn$_{10}$Fe(B$_{4}$Rh$_{9}$)$_{2}$,0.0,eV/atom,
Sb$_{2}$S$_{19}$F$_{12}$,1.9711999999999998,eV/atom,
KCrP$_{2}$S$_{7}$,1.2502999999999997,eV/atom,
LiBeH$_{5}$(NF$_{2}$)$_{2}$,5.6924,eV/atom,
SrZnO$_{2}$,2.0793,eV/atom,
ZnH$_{8}$C$_{4}$(N$_{4}$Cl)$_{2}$,4.4569,eV/atom,
WN$_{3}$F$_{5}$,3.2908,eV/atom,
K$_{6}$Se$_{2}$O$_{9}$,1.6318000000000001,eV/atom,
Na$_{4}$SnH$_{32}$(SeO$_{4}$)$_{4}$,2.1349,eV/atom,
K$_{2}$As$_{2}$Pt,0.8096999999999999,eV/atom,
YbSeClO$_{3}$,0.0,eV/atom,
Ca$_{31}$Sn$_{20}$,0.0,eV/atom,
K$_{2}$H$_{6}$PbO$_{6}$,2.131,eV/atom,
Dy$_{5}$Sn$_{13}$,0.0,eV/atom,
NaB(H$_{4}$O$_{3}$)$_{2}$,4.4654,eV/atom,
V$_{4}$(P$_{2}$O$_{7}$)$_{3}$,1.7479,eV/atom,
SmNiC$_{2}$,0.0,eV/atom,
ThAl$_{3}$Ni$_{2}$,0.0,eV/atom,
DySiRu$_{2}$C,0.0,eV/atom,
SmCoSi,0.0,eV/atom,
Cs$_{2}$NaErCl$_{6}$,5.3479,eV/atom,
Ho$_{5}$(MoO$_{6}$)$_{2}$,0.01949999999999985,eV/atom,
Rb$_{2}$NiH$_{12}$(SO$_{7}$)$_{2}$,4.8413,eV/atom,
K(Mo$_{6}$S$_{7}$)$_{2}$,0.0,eV/atom,
RbMnBr$_{3}$,1.182,eV/atom,
ZrCoBi,0.9771999999999998,eV/atom,
Gd$_{3}$(CuGe)$_{4}$,0.0,eV/atom,
CaC$_{2}$,2.1121000000000003,eV/atom,
Na$_{3}$Eu(CO$_{3}$)$_{3}$,0.0,eV/atom,
MgUO$_{4}$,1.6931000000000003,eV/atom,
Cr,0.0,eV/atom,
Na$_{5}$AlO$_{4}$,2.4191000000000003,eV/atom,
FeSi$_{2}$,0.0,eV/atom,
Cu(PO$_{3}$)$_{2}$,0.0,eV/atom,
V$_{2}$Ga$_{8}$Cu$_{3}$,0.0,eV/atom,
Bi$_{2}$Pd,0.0,eV/atom,
HfPd,0.0,eV/atom,
P$_{2}$Pb(XeF$_{6}$)$_{3}$,2.4778000000000002,eV/atom,
Cr$_{3}$Ge,0.0,eV/atom,
Na$_{6}$H$_{2}$Pd(S$_{2}$O$_{7}$)$_{2}$,0.0,eV/atom,
Y$_{4}$Ga$_{12}$Pd,0.0,eV/atom,
LiH$_{3}$(SeO$_{3}$)$_{2}$,4.256399999999999,eV/atom,
Cu$_{3}$P,0.0,eV/atom,
Cu$_{2}$H$_{3}$ClO$_{3}$,0.0,eV/atom,
K$_{3}$BiTe$_{3}$,1.4987,eV/atom,
Sr$_{2}$Cu$_{3}$O$_{5}$,0.0,eV/atom,
Yb(AlCl$_{4}$)$_{2}$,5.3967,eV/atom,
TiInCu$_{2}$,0.0,eV/atom,
Cs$_{2}$SO$_{4}$,5.0111,eV/atom,
Sb$_{4}$Br$_{2}$O$_{5}$,2.376,eV/atom,
Cs$_{2}$NaFeF$_{6}$,4.0522,eV/atom,
Ce(GePt)$_{2}$,0.0,eV/atom,
KCd$_{6}$P$_{7}$O$_{24}$,3.2745999999999995,eV/atom,
K$_{2}$TbF$_{6}$,0.0,eV/atom,
Er$_{2}$FeSi$_{2}$,0.0,eV/atom,
Co(CO)$_{4}$,2.6524,eV/atom,
Hg$_{4}$Pt,0.0,eV/atom,
As$_{2}$SO$_{6}$,4.407900000000001,eV/atom,
Li$_{8}$BiO$_{3}$,0.0,eV/atom,
VPPbO$_{6}$,2.3217000000000003,eV/atom,
NdSbTe,0.0,eV/atom,
Li$_{4}$Pr$_{3}$Ge$_{4}$,0.0,eV/atom,
Ho,0.0,eV/atom,
YbAu$_{2}$F$_{9}$,0.0,eV/atom,
TeO$_{2}$,2.3232,eV/atom,
KCrPO$_{4}$F,2.5013,eV/atom,
MnSiN$_{2}$,0.5245999999999995,eV/atom,
K$_{2}$VCuSe$_{4}$,1.0028000000000001,eV/atom,
MgCl$_{2}$,4.2732,eV/atom,
Rb$_{2}$Sn$_{2}$Hg$_{3}$S$_{8}$,1.6569999999999998,eV/atom,
CrN,0.0,eV/atom,
BaHo$_{2}$ZnO$_{5}$,3.0589,eV/atom,
CdN,0.0,eV/atom,
HfGeTe$_{4}$,0.33450000000000024,eV/atom,
SbBr$_{5}$F$_{6}$,1.7102,eV/atom,
KTh(SbSe$_{3}$)$_{2}$,0.6898,eV/atom,
CsUAgS$_{3}$,4.999999999997229E-4,eV/atom,
NdB$_{2}$Rh$_{2}$C,0.0,eV/atom,
ErCuS$_{2}$,1.6292999999999997,eV/atom,
BaGa$_{2}$(SiO$_{4}$)$_{2}$,4.0084,eV/atom,
BaLi(BS$_{2}$)$_{3}$,2.8639,eV/atom,
LuP$_{2}$H$_{4}$NO$_{7}$,4.9841,eV/atom,
Y$_{2}$C(NO)$_{2}$,3.9361999999999995,eV/atom,
U$_{3}$Sb$_{4}$,0.0,eV/atom,
Nb$_{15}$MoO$_{40}$F,1.8704999999999998,eV/atom,
Lu$_{3}$(CuGe)$_{4}$,0.0,eV/atom,
Ca$_{2}$B$_{5}$BrO$_{9}$,5.2036,eV/atom,
TeN$_{2}$,0.0,eV/atom,
InTeCl,1.6597999999999997,eV/atom,
Er(SiRu)$_{2}$,0.0,eV/atom,
CuHgSBr,0.5100000000000002,eV/atom,
La$_{2}$TaCl$_{3}$O$_{4}$,3.6843,eV/atom,
MgB$_{9}$N,1.6752999999999991,eV/atom,
Na$_{4}$SeO$_{5}$,1.3349000000000002,eV/atom,
CeCuSi$_{2}$,0.0,eV/atom,
CdNCl$_{3}$,0.8944,eV/atom,
Ho$_{3}$(CoGe$_{2}$)$_{2}$,0.0,eV/atom,
Fe$_{2}$Cu$_{6}$SnS$_{8}$,0.0,eV/atom,
Ba(NO$_{2}$)$_{2}$,2.3587000000000002,eV/atom,
Lu$_{14}$(InCo)$_{3}$,0.0,eV/atom,
KIn$_{9}$Co$_{2}$,0.0,eV/atom,
La$_{3}$Si$_{2}$ClO$_{8}$,4.5009,eV/atom,
MgAs$_{4}$,0.8144,eV/atom,
TaP$_{4}$(SCl)$_{5}$,2.1404,eV/atom,
SnHg$_{2}$(SBr)$_{2}$,1.9584,eV/atom,
NpCuPO,0.0,eV/atom,
TiRh,0.0,eV/atom,
RbFeSe$_{2}$,0.0,eV/atom,
Cr(FeSe$_{2}$)$_{2}$,0.0,eV/atom,
BN,4.4189,eV/atom,
MgCuBi,0.0,eV/atom,
Ca(CoGe)$_{2}$,0.0,eV/atom,
Na$_{2}$MgPO$_{4}$F,4.736000000000001,eV/atom,
SrZrO$_{3}$,3.6203,eV/atom,
YbB$_{2}$Os,0.0,eV/atom,
SrLuCuSe$_{3}$,1.1246000000000005,eV/atom,
Ba$_{2}$Mn(BO$_{2}$)$_{6}$,3.9788000000000006,eV/atom,
AgAsS$_{6}$N$_{4}$(OF$_{3}$)$_{2}$,1.8583,eV/atom,
CoMoO$_{4}$,1.7058999999999997,eV/atom,
Yb(FeGe)$_{6}$,0.0,eV/atom,
La$_{5}$B$_{4}$N$_{9}$,1.3068,eV/atom,
TiS$_{4}$(NCl)$_{4}$,2.0521000000000003,eV/atom,
Cu$_{3}$WO$_{6}$,0.09830000000000005,eV/atom,
Ca$_{2}$ZnGe$_{2}$O$_{7}$,3.0488,eV/atom,
TbMn$_{2}$O$_{5}$,1.0814999999999997,eV/atom,
CeCuSO,0.0,eV/atom,
HoCu$_{5}$,0.0,eV/atom,
CrSb,0.0,eV/atom,
BeO,8.168299999999999,eV/atom,
SrPdF$_{4}$,1.3251,eV/atom,
MnH$_{12}$C$_{2}$(NCl$_{2}$)$_{2}$,1.5219,eV/atom,
CeGaO$_{3}$,0.0,eV/atom,[Ce+3].O=C([O-])C1=CC(O)=C(O)C(O)=C1.O=C([O-])C1=CC(O)=C(O)C(O)=C1.O=C([O-])C1=CC(O)=C(O)C(O)=C1
TbAgTe$_{2}$,0.9058000000000002,eV/atom,
Mn$_{4}$Nb$_{2}$O$_{9}$,1.8273000000000001,eV/atom,
HoScO$_{3}$,4.4724,eV/atom,
LaCrO$_{3}$,2.203000000000001,eV/atom,
Th(GePd)$_{2}$,0,eV/atom,
HS$_{3}$N,2.8601,eV/atom,
Dy$_{4}$Ge$_{6}$Ir$_{7}$,0.0,eV/atom,
Th$_{2}$TeN$_{2}$,1.6182999999999996,eV/atom,
NdZn,0.0,eV/atom,
NbBRu,0.0,eV/atom,
Na$_{2}$W$_{4}$O$_{13}$,1.9482,eV/atom,
Na$_{10}$(Ga$_{2}$Sn)$_{3}$,0.0,eV/atom,
Rb$_{2}$WO$_{4}$,4.385400000000001,eV/atom,
Cs$_{2}$Mo$_{3}$SeO$_{12}$,2.4941000000000004,eV/atom,
ZrO$_{2}$,3.125,eV/atom,
Mg$_{2}$PO$_{4}$F,5.439,eV/atom,
Tm$_{2}$Co$_{3}$Si$_{5}$,0.0,eV/atom,
Ce$_{3}$Se$_{4}$,0.0,eV/atom,
MgCr$_{2}$O$_{4}$,2.8397,eV/atom,
Pr$_{6}$Cd$_{4}$Pd$_{13}$,0.0,eV/atom,
Na$_{2}$LiBe$_{2}$F$_{7}$,6.9483,eV/atom,
RbCuCl$_{3}$,0.3286,eV/atom,
Ta$_{4}$Ga(TeSe)$_{4}$,0.0,eV/atom,
CsAgCl$_{2}$,2.3368,eV/atom,
LaCo$_{2}$,0.0,eV/atom,
Tm(FeGe)$_{2}$,0.0,eV/atom,
Ce(AsPd)$_{2}$,0.0,eV/atom,
SrGe(HO$_{2}$)$_{2}$,4.1282000000000005,eV/atom,
Hg$_{3}$AsClO$_{4}$,2.0411,eV/atom,
LiBO$_{2}$,5.226,eV/atom,
TmAu,0.0,eV/atom,
CePt$_{5}$,0.0,eV/atom,
Sn(S$_{4}$I)$_{4}$,0.9752000000000001,eV/atom,
ZrRh,0.0,eV/atom,
U(CoGe)$_{2}$,0.0,eV/atom,
Os$_{3}$C$_{10}$(BrO$_{5}$)$_{2}$,0.5450999999999999,eV/atom,
RbCuSe$_{4}$,1.0026000000000002,eV/atom,
Ba$_{2}$TaBiO$_{6}$,2.5855,eV/atom,
Ca$_{5}$CdCu$_{2}$,0.0,eV/atom,
LuCuSi,0.0,eV/atom,
K$_{4}$(S$_{2}$O$_{3}$)$_{5}$,0.22750000000000004,eV/atom,
CsTbS$_{2}$,2.2052000000000005,eV/atom,
RbTiI$_{3}$,0.0,eV/atom,
Ce$_{3}$(GeRh)$_{2}$,0.0,eV/atom,
Sr(GeIr)$_{2}$,0.0,eV/atom,
SrTiO$_{3}$,1.7673000000000005,eV/atom,
Y$_{6}$TeO$_{12}$,2.7253999999999996,eV/atom,
Ba$_{2}$HoNbO$_{6}$,2.8516,eV/atom,
Ag$_{13}$OsO$_{6}$,0.0,eV/atom,
Be$_{2}$Ag,0.0,eV/atom,
ThB$_{2}$Rh$_{2}$C,0.0,eV/atom,
Ba$_{2}$HoTaO$_{6}$,3.4479999999999995,eV/atom,
La$_{4}$Ti$_{9}$(Si$_{2}$O$_{15}$)$_{2}$,0.0,eV/atom,
CrCl$_{3}$,1.5182,eV/atom,
TiZn(BiO$_{3}$)$_{2}$,2.9049000000000005,eV/atom,
SrB$_{2}$F$_{8}$,8.145199999999999,eV/atom,
MnSnAu,0.0030999999999998806,eV/atom,
PrZnSn,0.0,eV/atom,
Te(NCl$_{3}$)$_{2}$,0.6901999999999999,eV/atom,
Ag$_{3}$AsO$_{4}$,0.0,eV/atom,
LiUF$_{5}$,0.2607999999999997,eV/atom,
NiH$_{12}$S$_{2}$(NO$_{5}$)$_{2}$,4.5176,eV/atom,
SmGa$_{4}$Ni,0.0,eV/atom,
SrGeAu$_{3}$,0.0,eV/atom,
SrCo$_{2}$H$_{2}$(SeO$_{3}$)$_{4}$,2.6006,eV/atom,
Ta$_{6}$S,0.0,eV/atom,
U$_{2}$Co$_{3}$Si$_{5}$,0.0,eV/atom,
Si$_{3}$Ir,0.0,eV/atom,
CaCuH$_{4}$(CO$_{2}$)$_{4}$,0.7091999999999999,eV/atom,
TmCoSi,0.0,eV/atom,
LaInAu,0.0,eV/atom,
GdH$_{12}$(ClO$_{2}$)$_{3}$,3.1176,eV/atom,[Cl-].[Cl-].[Cl-].[Gd+3].O.O.O.O.O.O
Hg$_{4}$SbHO$_{6}$,0.0,eV/atom,
Yb$_{2}$InPd$_{2}$,0.0,eV/atom,
SmFeO$_{3}$,1.5177999999999998,eV/atom,
Na$_{3}$Sc$_{2}$(BO$_{3}$)$_{3}$,3.7232000000000003,eV/atom,
ScAlCO,1.2736999999999998,eV/atom,
Ca$_{2}$FeN$_{2}$,0.0,eV/atom,
Cs$_{2}$MnF$_{6}$,3.2382,eV/atom,
TbPt$_{2}$,0.0,eV/atom,
K$_{2}$ReI$_{6}$,0.8526,eV/atom,
CrSn$_{2}$,0.0,eV/atom,
B$_{6}$P,2.4757,eV/atom,
Ba$_{8}$Al$_{10}$B$_{12}$O$_{41}$,4.4373,eV/atom,
Ca$_{2}$CdPt$_{2}$,0.0,eV/atom,
Cu$_{3}$B$_{7}$BrO$_{13}$,0.0,eV/atom,
Ho$_{4}$(CoB$_{2}$)$_{3}$,0.0,eV/atom,
RbBiF$_{4}$,2.8659,eV/atom,
Dy$_{3}$CuSnS$_{7}$,1.4820000000000002,eV/atom,
CoPtF$_{6}$,1.8465,eV/atom,
MnH$_{2}$SO$_{4}$,4.1165,eV/atom,
CaCu$_{9}$Sn$_{4}$,0.0,eV/atom,
Be(B$_{6}$C)$_{2}$,0.11059999999999981,eV/atom,
Sc(MnGe)$_{6}$,0.0,eV/atom,
PrSb$_{2}$,0.0,eV/atom,
NaAlAs$_{2}$O$_{7}$,2.7304000000000004,eV/atom,
MgH$_{2}$,3.7097,eV/atom,
PrBi$_{2}$BrO$_{4}$,1.2269000000000005,eV/atom,
Tb(NiB)$_{2}$,0,eV/atom,
CsSbF$_{6}$,5.0904,eV/atom,
Gd$_{2}$CoSi$_{2}$,0.0,eV/atom,
Rb$_{3}$Ce$_{2}$(NO$_{3}$)$_{9}$,0.0,eV/atom,
CsLi$_{5}$(BO$_{3}$)$_{2}$,3.4975,eV/atom,
NdSi$_{3}$Ir,0.0,eV/atom,
MnH$_{2}$SO$_{5}$,3.7724,eV/atom,
CdF$_{2}$,2.8977000000000004,eV/atom,
In(IO$_{3}$)$_{3}$,3.0681,eV/atom,
KMg$_{6}$P$_{7}$O$_{24}$,5.1735,eV/atom,
Mg$_{3}$Si$_{2}$H$_{4}$O$_{9}$,4.2476,eV/atom,
SmAg,0.0,eV/atom,
Np(CuGe)$_{2}$,0.0065000000000008384,eV/atom,
Re$_{3}$S$_{4}$Cl,1.6338000000000004,eV/atom,
NaCeP$_{2}$O$_{7}$,0.0,eV/atom,
Mg$_{2}$Ni,0.0,eV/atom,
Tb$_{3}$FeB$_{7}$,0.0,eV/atom,
Cu$_{3}$SbSe$_{3}$,0.48609999999999953,eV/atom,
Ba$_{2}$S$_{3}$,1.5977999999999999,eV/atom,
BaO,2.3598999999999997,eV/atom,
HgSeO$_{3}$,2.5934,eV/atom,
Ba$_{2}$YSbO$_{6}$,3.5377,eV/atom,
B$_{5}$H$_{7}$,3.5551,eV/atom,
BaGe(PO$_{4}$)$_{2}$,4.167000000000001,eV/atom,
RbDy(SO$_{4}$)$_{2}$,5.666399999999999,eV/atom,
YP$_{5}$O$_{14}$,5.4835,eV/atom,
TiI$_{3}$,0.0,eV/atom,
InN,0.0,eV/atom,
SrBiS$_{2}$F,0.8856000000000002,eV/atom,
CeZnAu,0.0,eV/atom,
LaZnNi,0.0,eV/atom,
Be$_{2}$Si,0.0,eV/atom,
Ti$_{2}$AlV,0.0,eV/atom,
Ho$_{3}$SbO$_{3}$,0.3849,eV/atom,
MgB$_{2}$P$_{2}$H$_{8}$O$_{13}$,5.5984,eV/atom,
Pb$_{2}$CO$_{4}$,3.4126999999999996,eV/atom,
EuPd$_{3}$,0.0,eV/atom,
P$_{2}$Pb$_{8}$O$_{13}$,2.0642,eV/atom,
PrCuSe$_{2}$,0.7445999999999993,eV/atom,
KFePO$_{4}$F,2.4331,eV/atom,
Ag$_{8}$SnSe$_{6}$,9.999999999998899E-4,eV/atom,
Eu(Al$_{4}$Fe)$_{2}$,0.042599999999999305,eV/atom,
Er$_{3}$Al$_{2}$,0.0,eV/atom,
AlB$_{3}$N$_{4}$,3.5966000000000005,eV/atom,
RbFe(SeO$_{4}$)$_{2}$,2.2159,eV/atom,
ZrFeF$_{6}$,0.0,eV/atom,
Li$_{4}$Ca$_{2}$Mg(SiN$_{3}$)$_{2}$,3.2799,eV/atom,
CeSiBO$_{5}$,0.17140000000000022,eV/atom,
MnP$_{4}$,0.4347000000000012,eV/atom,
K$_{7}$P$_{6}$H$_{2}$NO$_{22}$,3.6047000000000002,eV/atom,
ErMnSi,0.0,eV/atom,
Ag$_{10}$Te$_{4}$Br$_{3}$,0.774,eV/atom,
Sr$_{2}$LaGaCu$_{2}$O$_{7}$,0.0,eV/atom,
Ag$_{2}$BiO$_{3}$,0.0,eV/atom,
SrF$_{2}$,6.3512,eV/atom,
Nb$_{3}$Co$_{3}$C,0.0,eV/atom,
ErP$_{4}$HO$_{12}$,5.554600000000001,eV/atom,
B(HO)$_{3}$,6.0809,eV/atom,
HoCo$_{3}$Cu$_{2}$,0.0,eV/atom,
Ni$_{10}$Sn$_{5}$P$_{3}$,0.0,eV/atom,
Lu$_{2}$MnS$_{4}$,1.0720999999999998,eV/atom,
Cu$_{5}$(AsO$_{5}$)$_{2}$,0.07489999999999997,eV/atom,
TiS$_{4}$(NCl)$_{5}$,1.4847000000000001,eV/atom,
KAs$_{2}$F$_{7}$,4.7762,eV/atom,
Ce$_{6}$In$_{5}$Pd$_{12}$,0.0,eV/atom,
EuC$_{2}$,0.0,eV/atom,
Nd$_{3}$CuSiS$_{7}$,1.6179000000000006,eV/atom,
NaH$_{3}$O$_{2}$,4.3479,eV/atom,
UF$_{6}$,2.7932,eV/atom,
NbFe$_{3}$,0.0,eV/atom,
Ti$_{4}$Pb$_{2}$O$_{9}$F$_{2}$,2.2932999999999995,eV/atom,
La$_{2}$Ti$_{2}$O$_{7}$,2.8594999999999997,eV/atom,
Sr$_{2}$TbIrO$_{6}$,0.0,eV/atom,
CsSmZnSe$_{3}$,2.024,eV/atom,
EuAg$_{5}$,0.0,eV/atom,
V$_{2}$Cu$_{3}$H$_{6}$O$_{11}$,0.0,eV/atom,
SrAlF$_{5}$,7.2457,eV/atom,
HfRh$_{3}$,0.0,eV/atom,
Er$_{2}$Cu(GeO$_{3}$)$_{4}$,0.8697999999999999,eV/atom,
K$_{2}$CdP$_{2}$O$_{7}$,3.7754,eV/atom,
CoHgC$_{4}$(SeN)$_{4}$,0.7733,eV/atom,
K$_{2}$ZnGeO$_{4}$,2.8518,eV/atom,
Zr$_{2}$V$_{3}$Ru,0.0,eV/atom,
NiHg$_{4}$,0.0,eV/atom,
Pr$_{3}$Pt$_{4}$,0.0,eV/atom,
SiO$_{2}$,1.2338,eV/atom,
AgHg$_{3}$As$_{2}$Cl$_{3}$,0.9148,eV/atom,
Yb$_{2}$InGe$_{2}$,0.0,eV/atom,
NaGdTiO$_{4}$,2.2356000000000003,eV/atom,
Nd(AlGa)$_{2}$,0.0,eV/atom,
CsUF$_{6}$,0.8853000000000001,eV/atom,
SrMgF$_{4}$,6.7312,eV/atom,
BaGePt,0.0,eV/atom,
Ba$_{4}$P$_{2}$O,1.0423999999999998,eV/atom,
SiO$_{2}$,5.72,eV/atom,
SbPH$_{4}$(O$_{2}$F$_{3}$)$_{2}$,4.1387,eV/atom,F[Sb-](F)(F)(F)(F)F.O[P+](O)(O)O
CeTe$_{3}$,0.0,eV/atom,
Se,0.0,eV/atom,
S$_{5}$N$_{5}$Cl,1.4863,eV/atom,
EuAg,0.2822,eV/atom,
CsSb$_{2}$F$_{11}$,4.4228,eV/atom,
Eu$_{2}$(Ga$_{3}$Ir)$_{3}$,0.030999999999999694,eV/atom,
Na$_{4}$UCr$_{3}$O$_{14}$,2.0333,eV/atom,
DyMg$_{3}$,0.0,eV/atom,
TlFe(MoO$_{4}$)$_{2}$,2.5956,eV/atom,
CeCuSi,0.0,eV/atom,
LiSmAlF$_{6}$,0.0,eV/atom,
LiAsH$_{20}$(C$_{2}$O)$_{4}$,0.3721000000000001,eV/atom,[Li+].[AsH2-].O(C)CCOC.O(C)CCOC
V$_{2}$Pb(OF$_{4}$)$_{2}$,3.4455999999999998,eV/atom,
BaNiO$_{3}$,1.4754999999999998,eV/atom,
Ba(HO)$_{2}$,3.7449999999999997,eV/atom,
Sm$_{2}$B$_{5}$,0.0,eV/atom,
SiO$_{2}$,5.8114,eV/atom,
V$_{2}$CoO$_{6}$,1.5745000000000002,eV/atom,
ScCr$_{2}$Ag(H$_{2}$O$_{5}$)$_{2}$,1.8005,eV/atom,
ErRh$_{2}$,0.0,eV/atom,
GeH$_{4}$,1.1509,eV/atom,
LaZnRh,0.0,eV/atom,
Ba$_{2}$GdMoO$_{6}$,0.0,eV/atom,
LiBeH$_{3}$,4.3797999999999995,eV/atom,
Ho(CoSi)$_{2}$,0.0,eV/atom,
PrNi,0.0,eV/atom,
KSb$_{3}$O$_{5}$,3.1078999999999994,eV/atom,
Pr$_{2}$Ti$_{3}$(ClO$_{4}$)$_{2}$,2.968,eV/atom,
CsMgH$_{3}$,2.9046999999999996,eV/atom,
Na$_{4}$Th(MoO$_{4}$)$_{4}$,3.9494000000000002,eV/atom,
HoInPd,0.0,eV/atom,
RuSe$_{2}$,0.3113999999999999,eV/atom,
TmCuSi,0.0,eV/atom,
TeI$_{4}$,1.7639000000000002,eV/atom,
Sm$_{3}$(Ge$_{2}$Ru)$_{2}$,0.0032000000000005357,eV/atom,
Ba$_{2}$YC$_{2}$(O$_{2}$F)$_{3}$,5.263999999999999,eV/atom,
TmCu$_{5}$,0.0,eV/atom,
Sr$_{3}$(AlGe$_{2}$)$_{2}$,0.0,eV/atom,
Sm$_{2}$SiTeO$_{4}$,1.7845000000000004,eV/atom,
LaCu$_{5}$,0.0,eV/atom,
BaCrO$_{3}$,0.0,eV/atom,
K$_{2}$Pb$_{2}$O$_{3}$,1.6906999999999996,eV/atom,
Hf$_{6}$Al$_{16}$Os$_{7}$,0.0,eV/atom,
Na$_{3}$H$_{6}$Rh,3.1017,eV/atom,
Ge$_{3}$N$_{4}$,1.9150999999999998,eV/atom,
NClOF$_{4}$,1.6345,eV/atom,
SrCa(CO$_{3}$)$_{2}$,4.7734000000000005,eV/atom,
TaCr$_{2}$,0.0,eV/atom,
AlBMo,0.0,eV/atom,
Nb$_{9}$Co$_{4}$Ge,0.0015000000000000568,eV/atom,
SmCo$_{9}$Si$_{4}$,0.0,eV/atom,
La$_{5}$NiPb$_{3}$,0.0,eV/atom,
YbFe$_{2}$,0.0,eV/atom,
Mo,0.0,eV/atom,
K$_{2}$UMo(IO$_{6}$)$_{2}$,2.1943,eV/atom,
YVO$_{3}$,1.5639000000000003,eV/atom,
SrSiO$_{3}$,2.3766,eV/atom,
La(PO$_{3}$)$_{3}$,4.6293,eV/atom,
Co$_{3}$Ge(CO)$_{10}$,1.9585,eV/atom,
TbP,0.0,eV/atom,
Al$_{2}$Si$_{2}$H$_{4}$O$_{9}$,4.9329,eV/atom,
SrBiSe$_{3}$,0.4969000000000001,eV/atom,
ZrCoP,0.0,eV/atom,
LiLuF$_{4}$,7.901199999999999,eV/atom,
YCd$_{2}$,0.0,eV/atom,
Ba$_{2}$Cd$_{2}$Sb$_{3}$,0.0,eV/atom,
PrAgPb,0.0,eV/atom,
Ho$_{3}$Se$_{4}$O$_{12}$F,3.7086,eV/atom,
LiH$_{3}$O$_{2}$,4.741,eV/atom,
Mg(InS$_{2}$)$_{2}$,1.7643999999999997,eV/atom,
CaIn$_{2}$Ni,0.0,eV/atom,
Y$_{2}$Ga$_{8}$Co,0.0,eV/atom,
SrNi$_{2}$Ge,0.0,eV/atom,
UTeSe,0.0,eV/atom,
Er$_{3}$PbC,0.0,eV/atom,
Er(VGa$_{2}$)$_{2}$,0.0,eV/atom,
Th$_{3}$N$_{4}$,1.4415000000000004,eV/atom,
RbCuO$_{2}$,0.9136000000000001,eV/atom,
La$_{4}$Mn(Cu$_{3}$S$_{5}$)$_{2}$,1.1272000000000002,eV/atom,
MnGaFe$_{2}$,0.0,eV/atom,
Na$_{2}$Pd(NO$_{2}$)$_{4}$,1.9466,eV/atom,
Ba$_{2}$NaNb$_{5}$O$_{15}$,2.4651,eV/atom,
Pr(Co$_{2}$B)$_{6}$,0.0,eV/atom,
CrH$_{20}$S$_{2}$(NO$_{7}$)$_{2}$,2.7076,eV/atom,
Nb$_{3}$Au$_{2}$,0.0,eV/atom,
EuDyCuS$_{3}$,0.062100000000000044,eV/atom,
Li$_{3}$BO$_{3}$,5.1473,eV/atom,
Sm$_{3}$Fe$_{5}$O$_{12}$,0.0,eV/atom,
Sb$_{2}$Br$_{9}$,0.0,eV/atom,
Si,0.5334000000000003,eV/atom,
MnPt,0.0,eV/atom,
P$_{2}$H$_{4}$RhO$_{9}$,2.0000000000000573E-4,eV/atom,
Ho$_{2}$S$_{3}$,0.6113999999999997,eV/atom,
PuRe$_{2}$,0.0,eV/atom,
InP$_{3}$(HO$_{5}$)$_{2}$,3.9704,eV/atom,
Tl$_{3}$VO$_{4}$,2.5950999999999995,eV/atom,
K$_{2}$LiSn$_{4}$,0.8388999999999998,eV/atom,
Nb$_{2}$CoO$_{6}$,2.3241,eV/atom,
Ba$_{2}$Tb$_{2}$Co$_{4}$O$_{11}$,0.05410000000000004,eV/atom,
Li$_{8}$PbO$_{6}$,2.3403,eV/atom,
P(W$_{3}$O$_{10}$)$_{2}$,0.0,eV/atom,
Yb$_{3}$H$_{8}$,0.0,eV/atom,
CaCdSn,0.0,eV/atom,
BH$_{6}$N,5.9559,eV/atom,
Dy$_{5}$Bi$_{3}$,0.0,eV/atom,
Ga$_{2}$CoS$_{4}$,0.32379999999999987,eV/atom,
SbH$_{6}$C(NCl$_{2}$)$_{3}$,1.5847,eV/atom,
RbV$_{3}$Cd$_{3}$O$_{11}$,2.978,eV/atom,
SrZnSi,0.0,eV/atom,
KLi$_{4}$NbO$_{5}$,3.7769999999999997,eV/atom,
ScHg$_{3}$,0.0,eV/atom,
ZnH$_{4}$(BrO)$_{2}$,3.5934999999999997,eV/atom,
PH$_{8}$C$_{2}$NO$_{4}$,5.544499999999999,eV/atom,
CaB$_{2}$(H$_{6}$O$_{5}$)$_{2}$,5.4565,eV/atom,
Ba$_{2}$NF,1.0924,eV/atom,
Ba$_{3}$(InP$_{2}$)$_{2}$,1.1092,eV/atom,
Mg(IN)$_{2}$,0.0,eV/atom,
Tm$_{5}$Sb$_{3}$,0.0,eV/atom,
Nb(SeBr)$_{2}$,0.9901,eV/atom,
NaH$_{5}$SO$_{4}$,3.9652,eV/atom,[Na+].[Na+].O=S([O-])([O-])=S.O.O.O.O.O
SnPd$_{3}$,0.0,eV/atom,
K$_{5}$In(MoO$_{4}$)$_{4}$,3.4447,eV/atom,
Pb(ClO$_{3}$)$_{2}$,4.3237000000000005,eV/atom,
V$_{2}$Cu$_{5}$(HO$_{3}$)$_{4}$,0.19210000000000038,eV/atom,
CdI$_{2}$,2.3541,eV/atom,
La$_{2}$InCuSe$_{5}$,0.5091000000000001,eV/atom,
Pr$_{5}$(CoB$_{3}$)$_{2}$,0.0,eV/atom,
LuAgPb,0.0,eV/atom,
Ba$_{2}$Eu$_{2}$Ti$_{2}$Cu$_{2}$O$_{11}$,0.0,eV/atom,
SiO$_{2}$,5.5589,eV/atom,
KTeHOF$_{4}$,5.027,eV/atom,
SrF$_{2}$,6.7493,eV/atom,
La$_{2}$PBr$_{2}$,0.0,eV/atom,
K$_{3}$Pu(PS$_{4}$)$_{2}$,0.06440000000000001,eV/atom,
ZrTe,0.0,eV/atom,
Ti$_{3}$AlC,0.0,eV/atom,
BaCdS$_{2}$,1.7352999999999998,eV/atom,
Zn(Mo$_{4}$O$_{5}$)$_{2}$,0.18119999999999958,eV/atom,
NbSeCl$_{3}$,0.7501000000000002,eV/atom,
Zr$_{3}$Pb(O$_{2}$F$_{3}$)$_{2}$,2.8390000000000004,eV/atom,
Ho(SiPt)$_{2}$,0,eV/atom,
Bi$_{9}$Ir$_{2}$I$_{3}$,0.5545,eV/atom,
Ba$_{3}$Pb$_{5}$,0.0,eV/atom,
Cd(RhO$_{2}$)$_{2}$,0.8366999999999996,eV/atom,
TiSiRh,0.0,eV/atom,
Mo$_{2}$N,0.0,eV/atom,
Ta$_{3}$SiNi$_{2}$,0.0,eV/atom,
Mn$_{4}$Be$_{3}$Si$_{3}$SeO$_{12}$,3.1871,eV/atom,
NaGa(SiO$_{3}$)$_{2}$,4.1707,eV/atom,
LiCS(OF)$_{3}$,6.5704,eV/atom,
Na$_{3}$MgPCO$_{7}$,4.5243,eV/atom,
TlSiPt$_{5}$,0.0,eV/atom,
ZnHgAsHO$_{5}$,1.3969,eV/atom,
Ba$_{2}$Co(BO$_{2}$)$_{6}$,2.1832,eV/atom,
YbP$_{5}$,0.0,eV/atom,
ScNi$_{4}$Au,0.0,eV/atom,
MgMoN$_{2}$,0.7411000000000012,eV/atom,
Tb(SiIr)$_{2}$,0.0,eV/atom,
H$_{12}$Cl$_{2}$O$_{13}$,5.255,eV/atom,
PtO$_{2}$,1.5987,eV/atom,
LiB(S$_{2}$O$_{7}$)$_{2}$,5.51,eV/atom,
NdGe$_{2}$Ir,0.0,eV/atom,
SrCaPb,0.27680000000000016,eV/atom,
Ba$_{2}$NdSbO$_{6}$,3.7321000000000004,eV/atom,
EuInPd,0.028200000000000003,eV/atom,
GdBi$_{2}$IO$_{4}$,1.3080999999999996,eV/atom,
Al$_{3}$(PO$_{4}$)$_{4}$,0.020799999999999486,eV/atom,
SrSn$_{3}$Pd,0.0,eV/atom,
TbNiSb,0.3318000000000003,eV/atom,
NbAu$_{2}$,0.0,eV/atom,
NdI$_{2}$,0.0,eV/atom,
LaAs$_{2}$,0.31259999999999977,eV/atom,
Rb$_{2}$FeH$_{2}$C$_{5}$(N$_{3}$O)$_{2}$,2.7814,eV/atom,
Ho$_{3}$SnC,0.0,eV/atom,
Tb$_{2}$Cu(BO$_{2}$)$_{8}$,0.8675000000000002,eV/atom,
AlCrCo$_{2}$,0.0,eV/atom,
Na$_{2}$Al$_{2}$S$_{3}$(Cl$_{4}$O$_{3}$)$_{2}$,2.5887000000000002,eV/atom,
YB$_{2}$Pd$_{7}$,0.0,eV/atom,
Cs$_{2}$AgBr$_{3}$,2.9701,eV/atom,
K$_{2}$Se(SO$_{3}$)$_{2}$,2.9779,eV/atom,
NaVPO$_{5}$,1.6149,eV/atom,
Ba$_{3}$MnNb$_{2}$O$_{9}$,1.7672999999999996,eV/atom,
Gd(SiPt)$_{2}$,0.0,eV/atom,
LaMg$_{2}$Ni$_{9}$,0.0048000000000003595,eV/atom,
FeCu$_{2}$Sn,0.0,eV/atom,
Sm$_{3}$SiS$_{6}$Cl,2.5571999999999995,eV/atom,
Eu$_{3}$Zn$_{2}$(CuP$_{2}$)$_{2}$,0.0,eV/atom,
NbBiO$_{4}$,2.9369,eV/atom,
Cs$_{2}$YSi$_{4}$O$_{10}$F,4.8312,eV/atom,
LiYbPb,0.0,eV/atom,
Rb$_{4}$Ge$_{9}$(H$_{3}$N)$_{5}$,1.9827,eV/atom,
AlCuSe$_{2}$,0.8921999999999999,eV/atom,
Lu(P$_{2}$Rh$_{3}$)$_{2}$,0.0,eV/atom,
Ba$_{3}$Zr$_{2}$S$_{7}$,0.8273999999999999,eV/atom,
Y(CoSi)$_{2}$,0.0,eV/atom,
HfFe$_{2}$,0.0,eV/atom,
KTlBr$_{4}$,1.8089,eV/atom,
KPuP$_{2}$S$_{7}$,0.036900000000000155,eV/atom,
Sr$_{3}$BPO$_{3}$,2.0155,eV/atom,
KCuCl$_{3}$,0.0022999999999999687,eV/atom,
Dy(MnGe)$_{6}$,0.0,eV/atom,
CsUV$_{3}$O$_{11}$,2.1691,eV/atom,
LiCaPO$_{4}$,5.1799,eV/atom,
YCu$_{3}$Se$_{2}$ClO$_{8}$,0.22750000000000004,eV/atom,
Nb$_{2}$Ni$_{4}$O$_{9}$,2.5073,eV/atom,
Nd$_{5}$Co$_{2}$,0.0,eV/atom,
Y$_{16}$B$_{4}$C$_{8}$I$_{19}$,0.1993999999999998,eV/atom,
RhPb$_{2}$F$_{7}$,1.7702,eV/atom,
BiBrO,2.2701,eV/atom,
NbSn$_{2}$,0.0,eV/atom,
Nd$_{2}$TeO$_{6}$,3.1178,eV/atom,
Ba$_{3}$Li$_{2}$V$_{2}$Cl$_{4}$O$_{7}$,3.1302,eV/atom,
NaSn$_{2}$,0.0,eV/atom,
Mn$_{4}$SiO$_{7}$,0.8957000000000002,eV/atom,
FePSe,0.1758999999999995,eV/atom,
Cs$_{2}$U(Cl$_{2}$O)$_{2}$,2.3217,eV/atom,
LuNiGe$_{3}$,0.0,eV/atom,
Tl$_{3}$Ag$_{3}$(SbS$_{3}$)$_{2}$,1.4758,eV/atom,