formula,Property band_gap,Property band_gap units,Property SMILES
MoS$_{2}$,1.4223999999999997,eV/atom,
PrB$_{2}$Ir$_{3}$,0.0,eV/atom,
Ho$_{5}$Co$_{2}$Bi,0.0,eV/atom,
ThGaIr,0.0,eV/atom,
Cu(BiO$_{2}$)$_{2}$,0.0,eV/atom,
SmSnAu,0.0,eV/atom,
BaF$_{2}$,5.9306,eV/atom,
Pr$_{4}$S$_{3}$N$_{2}$,1.5229,eV/atom,
Nd$_{3}$MnAlS$_{7}$,0.4519000000000002,eV/atom,
Sr$_{3}$GaO$_{4}$F,3.6831,eV/atom,
Y$_{2}$MnCrO$_{6}$,0.8313999999999999,eV/atom,
TbNiGe$_{3}$,0.0,eV/atom,
CaSi$_{2}$(BO$_{4}$)$_{2}$,5.6644000000000005,eV/atom,
K$_{3}$Nd$_{3}$(PS$_{4}$)$_{4}$,2.4204,eV/atom,
Zn(BrN)$_{2}$,0.09040000000000004,eV/atom,
UB$_{2}$Ir$_{3}$,0.0,eV/atom,
Yb$_{2}$WO$_{6}$,0.46009999999999995,eV/atom,
Zn$_{2}$P$_{2}$O$_{7}$,3.6266000000000003,eV/atom,
GeSe$_{2}$,1.4381000000000002,eV/atom,
H(CO)$_{2}$,2.8764,eV/atom,
Fe$_{2}$Ge,0.0,eV/atom,
ErSi$_{3}$Rh$_{5}$,0.0,eV/atom,
Sr$_{2}$HoSbO$_{6}$,3.6365,eV/atom,
BaLa$_{2}$ZnO$_{5}$,3.1916,eV/atom,
LuInRh,0.0,eV/atom,
HfSiO$_{4}$,5.311100000000001,eV/atom,
OsC$_{4}$(ClO$_{2}$)$_{2}$,2.8287000000000004,eV/atom,
Tl(ZnSb)$_{2}$,0.0,eV/atom,
PdC$_{2}$S$_{2}$(O$_{4}$F)$_{2}$,2.4461,eV/atom,
SiO$_{2}$,5.5482,eV/atom,
Sr$_{3}$Y(BO$_{3}$)$_{3}$,4.4201999999999995,eV/atom,
Si$_{3}$W$_{5}$,0.0,eV/atom,
LiGaI$_{4}$,2.5201,eV/atom,
K$_{10}$MgMo$_{7}$O$_{27}$,3.7119,eV/atom,
CaTiO$_{3}$,2.2434,eV/atom,
LaIn$_{2}$,0.0,eV/atom,
FeS$_{2}$O$_{9}$,0.0,eV/atom,
BaC$_{2}$,1.3754,eV/atom,
Ca$_{5}$Al$_{2}$(SiN$_{4}$)$_{2}$,2.7947999999999995,eV/atom,
Ce(As$_{3}$Ru)$_{4}$,0.20690000000000008,eV/atom,
CsAu,1.0239,eV/atom,
SmTe,0.0,eV/atom,
SrZnPb,0.0,eV/atom,
Nb(SBr)$_{2}$,1.5244,eV/atom,
PdPbF$_{4}$,1.0993999999999997,eV/atom,
CeSb$_{2}$,0.0,eV/atom,
TlSbS$_{2}$,1.6534,eV/atom,
K$_{34}$(Zn$_{4}$In$_{17}$)$_{5}$,0.0,eV/atom,
ErNi$_{4}$B,0.0,eV/atom,
SrCu$_{2}$(BO$_{3}$)$_{2}$,0.0,eV/atom,
GeTe,0.21940000000000026,eV/atom,
Dy(CoB)$_{2}$,0.0,eV/atom,
Cs$_{2}$KMoF$_{6}$,4.1117,eV/atom,
P$_{2}$Os$_{4}$C$_{15}$O$_{13}$F$_{6}$,2.5993,eV/atom,
LiH$_{2}$ClO,5.3072,eV/atom,
Er$_{4}$I$_{5}$,0.0,eV/atom,
K$_{3}$Mn$_{2}$F$_{7}$,2.7835,eV/atom,
AlIr,0.0,eV/atom,
Bi$_{8}$SbAuBr$_{9}$,1.1646,eV/atom,
Tb$_{2}$Au$_{5}$F$_{21}$,1.6596,eV/atom,
NaFe$_{3}$P$_{2}$(H$_{4}$O$_{7}$)$_{2}$,2.2696,eV/atom,
MgZnAg$_{2}$,0.0,eV/atom,
Ba$_{5}$Ru$_{2}$ClO$_{9}$,0.0,eV/atom,
LaAlO$_{3}$,3.4924999999999997,eV/atom,
LaF$_{3}$,4.8604,eV/atom,
Ga$_{2}$Pt,0.0,eV/atom,
TmB$_{2}$C,0.0,eV/atom,
Ta$_{5}$AuS,0.0,eV/atom,
Ba$_{3}$(SnAs$_{2}$)$_{2}$,0.7525,eV/atom,
Nb$_{3}$PbS$_{6}$,0.0,eV/atom,
Ba$_{2}$CaSi$_{4}$(BO$_{7}$)$_{2}$,4.8764,eV/atom,
Si,0.5381,eV/atom,
KPAuSe$_{3}$,1.0152,eV/atom,
Sc$_{2}$H$_{10}$S$_{3}$O$_{17}$,2.6195,eV/atom,
K$_{2}$ReCl$_{5}$O,0.6691,eV/atom,
TlFeBr$_{3}$,0.0,eV/atom,
CBrN,5.1,eV/atom,N#CBr
Sb(S$_{8}$I)$_{3}$,2.384,eV/atom,[S].[S].[S].[S].[S].[S].[S].[S].[S].[S].[S].[S].[S].[S].[S].[S].[S].[S].[S].[S].[S].[S].[S].[S].I[Sb](I)I
Sr$_{2}$NiSe$_{2}$(ClO$_{3}$)$_{2}$,3.6501,eV/atom,
YbS,2.2234,eV/atom,
Tb$_{2}$Si$_{5}$Ni$_{3}$,0.0,eV/atom,
K$_{5}$CeNi$_{2}$(NO$_{2}$)$_{12}$,0.0,eV/atom,
LiNb$_{3}$InCl$_{9}$,0.9529999999999998,eV/atom,
RbAlO$_{2}$,3.3716,eV/atom,
KNi(PO$_{3}$)$_{3}$,4.953,eV/atom,
Na$_{2}$Te$_{2}$O$_{7}$,0.7000000000000002,eV/atom,
Y$_{3}$SnC,0.0,eV/atom,
V$_{4}$As$_{3}$,2.0000000000042206E-4,eV/atom,
Te$_{4}$WCl$_{6}$,0.0,eV/atom,
Dy$_{5}$NiPb$_{3}$,0.0,eV/atom,
Sr(MgAs)$_{2}$,1.3464000000000005,eV/atom,
La$_{2}$AlNi$_{9}$H$_{2}$,0.0,eV/atom,
Ti$_{11}$Se$_{4}$,0.004499999999999282,eV/atom,
HNF$_{2}$,1.5769,eV/atom,
ZnAu$_{3}$,0.0,eV/atom,
CsVGa(PO$_{5}$)$_{2}$,0.6576,eV/atom,
TiO$_{2}$,2.4757000000000007,eV/atom,
Sr$_{2}$NiRuO$_{6}$,0.0,eV/atom,
Ba$_{2}$BN$_{2}$Cl,2.7508,eV/atom,
Sm$_{3}$In,0.0,eV/atom,
BF$_{3}$,8.1417,eV/atom,
K$_{3}$WS$_{3}$ClO,2.777,eV/atom,
Cs$_{2}$Se,1.8845,eV/atom,
ErPdPb,0.0,eV/atom,
Ca(CdAs)$_{2}$,0.2208000000000001,eV/atom,
As$_{2}$S$_{2}$O$_{9}$,4.0514,eV/atom,
K$_{2}$AgP,1.2315,eV/atom,
La$_{6}$OsI$_{10}$,0.0,eV/atom,
PbBrO,0.09350000000000014,eV/atom,
TbNi,0.0,eV/atom,
BeAgPO$_{4}$,2.6504000000000003,eV/atom,
U$_{5}$(B$_{12}$Mo$_{5}$)$_{2}$,0.0,eV/atom,
LiCd,0.0,eV/atom,
B$_{3}$H$_{7}$N,1.4863,eV/atom,
TbMnSi,0.0,eV/atom,
Na$_{3}$As,0.09410000000000007,eV/atom,
RuF$_{3}$,0,eV/atom,
Ni$_{2}$GeO$_{4}$,2.1356,eV/atom,
BePd$_{2}$,0.0,eV/atom,
Ti$_{3}$Ni$_{3}$O,0.0,eV/atom,
K$_{4}$U(PO$_{5}$)$_{2}$,2.0197,eV/atom,
LiH$_{2}$NO$_{3}$,2.7718999999999996,eV/atom,
Ni$_{17}$S$_{18}$,0,eV/atom,
GaP,0.8334000000000001,eV/atom,
RbN$_{3}$,3.7529,eV/atom,
Th$_{2}$Pd,0.0,eV/atom,
K$_{3}$Ho(SiO$_{3}$)$_{3}$,3.7625,eV/atom,
P$_{2}$H$_{24}$PdC$_{12}$(BrN$_{3}$)$_{2}$,1.7182000000000002,eV/atom,
Ti$_{3}$H$_{3}$Au,0.0,eV/atom,
LiNi$_{2}$P$_{3}$O$_{10}$,3.9647,eV/atom,
ScSn$_{2}$,0.028900000000000148,eV/atom,
CaAl$_{2}$O$_{4}$,4.8499,eV/atom,
CeSi$_{2}$Ir,0.0,eV/atom,
P$_{2}$Pd$_{2}$O$_{7}$,0.7162999999999999,eV/atom,
Cr(PO$_{3}$)$_{3}$,3.3268,eV/atom,
K$_{3}$AlTe$_{3}$,2.117,eV/atom,
Pr$_{5}$(RuO$_{6}$)$_{2}$,0.2431000000000001,eV/atom,
SrNi$_{3}$Ge$_{2}$,0.0,eV/atom,
Rb$_{2}$ZnI$_{4}$,3.11,eV/atom,
MgSi$_{7}$Ir$_{3}$,0.0,eV/atom,
NdCu$_{6}$,0.019199999999999662,eV/atom,
Rb$_{2}$MoSO$_{4}$,0.4021,eV/atom,
Sm(CoB)$_{2}$,0.0,eV/atom,
NaHO,2.802,eV/atom,
SmSi$_{3}$Rh$_{5}$,0.0,eV/atom,
RbTbSe$_{2}$,1.9336000000000002,eV/atom,
Sb$_{2}$Te,0.0,eV/atom,
U$_{20}$Si$_{16}$C$_{3}$,0.0,eV/atom,
KSbO$_{3}$,2.6656999999999997,eV/atom,
SrNi$_{3}$(P$_{2}$O$_{7}$)$_{2}$,3.9942,eV/atom,
AgAsPbS$_{3}$,1.3834,eV/atom,
YbTl,0.0,eV/atom,
CrHg$_{3}$O$_{5}$,1.6543,eV/atom,
Na$_{2}$V$_{3}$O$_{7}$,2.4932,eV/atom,
KRb$_{3}$CdCl$_{6}$,4.0135000000000005,eV/atom,
LaCuPb,0.0,eV/atom,
CeAs,0.0,eV/atom,
CaZnPb,0.0,eV/atom,
Nd$_{2}$Fe$_{17}$N$_{3}$,0.0,eV/atom,
RbLa(WO$_{4}$)$_{2}$,3.7897,eV/atom,
U(AlFe$_{2}$)$_{4}$,0.0,eV/atom,
BH$_{3}$OF$_{4}$,7.657299999999999,eV/atom,
LiZnPO$_{4}$,4.1895999999999995,eV/atom,
PrSe$_{2}$,0.0,eV/atom,
Y$_{3}$AlC$_{3}$,0.0,eV/atom,
Na$_{3}$WO$_{4}$F,4.4655000000000005,eV/atom,
Mn$_{3}$Si,0.0,eV/atom,
La(Sb$_{3}$Os)$_{4}$,0.0,eV/atom,
Li$_{2}$InIr,0.0,eV/atom,
NiSe,0.0,eV/atom,
LiSn$_{5}$Rh$_{3}$,0.0,eV/atom,
CuBi$_{3}$PbS$_{6}$,0.6220999999999997,eV/atom,
KYF$_{4}$,6.9097,eV/atom,
CaMnP$_{2}$O$_{7}$,4.3248,eV/atom,
P$_{4}$Se$_{3}$I$_{2}$,2.0715999999999997,eV/atom,
Ba$_{2}$CaUO$_{6}$,2.1961000000000004,eV/atom,
ErMg$_{2}$,0.0,eV/atom,
HoAu,0.0,eV/atom,
U$_{2}$Cr$_{3}$Si,0.0,eV/atom,
Sb$_{2}$Pt,0.0,eV/atom,
BaErAgS$_{3}$,0.9929999999999999,eV/atom,
LaH$_{2}$,0.0,eV/atom,
InCl,1.4018000000000002,eV/atom,
Cs$_{2}$NaAlF$_{6}$,6.697,eV/atom,
La$_{5}$(SiN$_{3}$)$_{3}$,1.9651999999999994,eV/atom,
PH$_{5}$N$_{2}$O$_{3}$,2.3806000000000003,eV/atom,
Sr$_{2}$TbGaCu$_{2}$O$_{7}$,0.0,eV/atom,
Sm(GaPd)$_{2}$,0.0,eV/atom,
In$_{2}$Si$_{2}$O$_{7}$,1.8171,eV/atom,
K$_{2}$SO$_{4}$,5.2088,eV/atom,
TeAs(Se$_{2}$F$_{3}$)$_{2}$,1.4334,eV/atom,
BHO$_{2}$,7.0739,eV/atom,
La$_{3}$CuGeS$_{7}$,1.7961,eV/atom,
Ba$_{2}$Mg(BO$_{3}$)$_{2}$,4.532399999999999,eV/atom,
MgSiO$_{3}$,4.5456,eV/atom,
Cr$_{4}$Co$_{3}$(PO$_{4}$)$_{6}$,2.0835999999999997,eV/atom,
Cs$_{2}$UTa$_{6}$(Cl$_{5}$O)$_{3}$,0.0,eV/atom,
Sr(Cu$_{2}$As)$_{2}$,0,eV/atom,
U(BO$_{3}$)$_{2}$,2.2449,eV/atom,
Zr$_{2}$Ga(PO$_{4}$)$_{3}$,4.186999999999999,eV/atom,
NiMoO$_{4}$,3.0004,eV/atom,
Ac,0.0,eV/atom,
K$_{2}$Li$_{14}$Zr$_{3}$O$_{14}$,4.2801,eV/atom,
Ti$_{2}$GaN,0.0,eV/atom,
Cu$_{2}$HgGeS$_{4}$,0.0041999999999999815,eV/atom,
Ba$_{5}$Re$_{3}$ClO$_{15}$,2.5307,eV/atom,
I$_{2}$O$_{5}$,2.7173000000000003,eV/atom,O=[I+3]
YbH$_{3}$,0.0,eV/atom,
FeP$_{2}$HO$_{7}$,2.6204,eV/atom,
ZrCuSi$_{2}$,0.19459999999999944,eV/atom,
GeO$_{2}$,1.5228000000000002,eV/atom,
NaZnF$_{3}$,3.7676,eV/atom,
YbSbS,0.0,eV/atom,
Ga$_{3}$PO$_{7}$,3.1409000000000002,eV/atom,
RbC$_{2}$N$_{3}$,3.6271,eV/atom,
Ba(PIr)$_{2}$,0.0,eV/atom,
MnP$_{2}$H$_{36}$C$_{12}$N$_{6}$(ClO)$_{2}$,4.2192,eV/atom,
Rb$_{2}$Ce(NO$_{3}$)$_{6}$,1.491,eV/atom,
Y$_{2}$SiO$_{5}$,4.7341999999999995,eV/atom,
Sr$_{5}$(AuO$_{4}$)$_{2}$,1.3224,eV/atom,
UPb,0.0,eV/atom,
SnS,0.08940000000000037,eV/atom,
MnPd,0.0,eV/atom,
BaH$_{4}$(CO$_{3}$)$_{2}$,3.4081,eV/atom,[Ba+2].O=C([O-])C(=O)[O-].O.O
Na$_{2}$Mn$_{2}$S$_{3}$,0.49150000000000027,eV/atom,
Y$_{5}$CuPb$_{3}$,0.0,eV/atom,
K$_{3}$Sb,0.6773,eV/atom,
CsNa$_{5}$(WN$_{3}$)$_{2}$,1.7775,eV/atom,
NbTe$_{7}$Br$_{5}$O,0.6358000000000001,eV/atom,
PrZn,0.0,eV/atom,
HoB$_{12}$,0.0,eV/atom,
Na$_{2}$Cu(CO$_{3}$)$_{2}$,0.4934999999999998,eV/atom,
TaP$_{4}$S$_{4}$Cl$_{5}$,1.8505000000000003,eV/atom,
ThTi$_{2}$O$_{6}$,2.9198999999999997,eV/atom,
InFe$_{2}$CuSe$_{4}$,0.0,eV/atom,
SrAs$_{3}$,0.0,eV/atom,
Mg$_{21}$Zn$_{25}$,0.0,eV/atom,
Ce$_{5}$Sn$_{3}$,0.0,eV/atom,
TbAsS,0.15739999999999998,eV/atom,
NaCrF$_{4}$,3.0477,eV/atom,
US$_{2}$,0.0,eV/atom,
Li$_{2}$CoPO$_{4}$F,2.6148000000000002,eV/atom,
V$_{6}$Si$_{5}$,0.0,eV/atom,
MgH$_{2}$SeO$_{5}$,3.4068,eV/atom,
Eu(AlAu)$_{2}$,0.0,eV/atom,
ZnNi,0.0,eV/atom,
Ce(NiGe)$_{2}$,0.0,eV/atom,
Ba$_{4}$Al$_{2}$O$_{7}$,3.5745,eV/atom,
YAuO$_{2}$,2.6861999999999995,eV/atom,
PbSeO$_{3}$,3.3267999999999995,eV/atom,
RbN,0.0,eV/atom,
CuH$_{6}$SO$_{7}$,0.7765000000000001,eV/atom,
Dy$_{2}$S$_{3}$,0.5937999999999999,eV/atom,
Nd$_{2}$Ta$_{2}$Cl$_{2}$O$_{7}$,3.0798,eV/atom,
KFeC$_{6}$(NO)$_{3}$,4.4460999999999995,eV/atom,
BaHo$_{2}$NiO$_{5}$,2.2548000000000004,eV/atom,
Te$_{2}$W$_{3}$(CO)$_{15}$,1.2205,eV/atom,
TbGeAu,0.0,eV/atom,
Rb$_{2}$As$_{2}$Pt,0.42779999999999996,eV/atom,
AsS$_{2}$NF$_{6}$,2.608,eV/atom,
S$_{3}$N$_{3}$ClO$_{2}$,2.3052,eV/atom,N=1N=SS=SN1
Ba$_{2}$MnO$_{3}$,1.6202999999999999,eV/atom,
H$_{14}$C$_{5}$(SN)$_{2}$,2.6468,eV/atom,S=C([S-])N(C)C.C[NH2+]C
HgH$_{2}$NCl,2.3849,eV/atom,
K$_{2}$SeO$_{4}$,3.6435,eV/atom,
Al$_{2}$S$_{3}$,0.0,eV/atom,
K$_{3}$BP$_{2}$,1.6660000000000001,eV/atom,
EuGe$_{3}$Pt,0.0,eV/atom,
CrFeTe,0.0,eV/atom,
CsNO$_{2}$,2.3383000000000003,eV/atom,
CaNiGeH,0.0,eV/atom,
K$_{3}$HoV$_{2}$O$_{8}$,3.4364999999999997,eV/atom,
CoAsS,0.9407000000000005,eV/atom,
SmCd(BO$_{2}$)$_{5}$,4.4709,eV/atom,
Y$_{2}$FeC$_{4}$,0.0,eV/atom,
KVP$_{2}$S$_{7}$,0.07159999999999966,eV/atom,
Li$_{2}$Co(WO$_{4}$)$_{2}$,2.6607,eV/atom,
UCuBi$_{2}$,0.0,eV/atom,
Mn$_{2}$CuGe,0.0,eV/atom,
Cr$_{2}$CoSe$_{4}$,0.0,eV/atom,
Bi$_{5}$NO$_{10}$,2.6161,eV/atom,
LiAl$_{2}$H$_{6}$ClO$_{6}$,5.1531,eV/atom,
BaCl$_{2}$,5.1132,eV/atom,
CsZr$_{6}$MnI$_{14}$,0.8649,eV/atom,
K$_{6}$Be$_{4}$C$_{6}$O$_{19}$,4.8084,eV/atom,
ZnCu$_{2}$SnSe$_{4}$,0.04289999999999994,eV/atom,
Mo$_{4}$O$_{11}$,0.0,eV/atom,
VSO$_{5}$,1.4931999999999999,eV/atom,
K$_{3}$AlF$_{6}$,6.2965,eV/atom,
Sb$_{2}$Pb$_{2}$O$_{7}$,0.0,eV/atom,
Ba$_{5}$Ta$_{4}$O$_{15}$,3.0865,eV/atom,
Cs$_{4}$Th$_{2}$P$_{5}$Se$_{17}$,1.3128,eV/atom,
Mg(C$_{2}$N$_{3}$)$_{2}$,4.6077,eV/atom,[Mg+2].N#C[N-]C#N.N#C[N-]C#N
Na$_{8}$BiO$_{3}$,0.0,eV/atom,
ZnH$_{2}$SeO$_{5}$,2.7049000000000003,eV/atom,
Si$_{2}$Ni$_{3}$,0.0,eV/atom,
Sb$_{8}$(Pb$_{3}$S$_{7}$)$_{3}$,1.5115999999999996,eV/atom,
NaBiO$_{2}$,1.1350000000000002,eV/atom,
Cu$_{2}$As,0,eV/atom,
U(Al$_{5}$Fe)$_{2}$,0.0,eV/atom,
SnCSNF,2.8283000000000005,eV/atom,
MgAg(PO$_{3}$)$_{3}$,3.3422,eV/atom,
TbAsSe,0.4513000000000007,eV/atom,
U$_{3}$MnSb$_{5}$,0.0,eV/atom,
CsBrF$_{4}$,3.2414,eV/atom,
Cs$_{2}$ThCl$_{6}$,4.6918999999999995,eV/atom,
Dy(CoGe)$_{6}$,0.0,eV/atom,
HC$_{2}$S$_{2}$N(O$_{2}$F$_{3}$)$_{2}$,6.4056,eV/atom,O=S(=O)(NS(=O)(=O)C(F)(F)F)C(F)(F)F
Tm(Mo$_{3}$S$_{4}$)$_{2}$,0.0,eV/atom,
NdFeO$_{3}$,1.4748999999999999,eV/atom,
Na$_{6}$Mg$_{2}$C$_{4}$SO$_{16}$,3.7182000000000004,eV/atom,
Y$_{3}$(Co$_{2}$Sn)$_{4}$,0.0,eV/atom,
K$_{2}$GaSb$_{2}$,1.1041999999999998,eV/atom,
Tl$_{3}$SnSe$_{4}$,0.0,eV/atom,
Ba$_{2}$CrMoO$_{6}$,0.0,eV/atom,
Cs$_{2}$CdI$_{4}$,2.8773999999999997,eV/atom,
RbUAuSe$_{3}$,0.0,eV/atom,
Ce(BRu)$_{2}$,0.0,eV/atom,
Hf$_{2}$InC,0.0,eV/atom,
TmAlNi,0.0,eV/atom,
K$_{3}$GdH$_{6}$(C$_{2}$O$_{5}$)$_{3}$,2.9734000000000003,eV/atom,
Li$_{2}$Ca$_{2}$Si$_{5}$O$_{13}$,4.7981,eV/atom,
KYP$_{2}$O$_{7}$,5.065,eV/atom,
Y$_{5}$Ge$_{3}$,0.0,eV/atom,
NbNiB,0.0,eV/atom,
YbAgSe$_{2}$,0.0,eV/atom,
Li$_{2}$BeF$_{4}$,7.597899999999999,eV/atom,
LiH,2.9737,eV/atom,
CsMnP,0.0,eV/atom,
GaSb,0.0,eV/atom,
Ce$_{4}$MnSe$_{6}$O,0.0,eV/atom,
Ba$_{14}$Ir$_{8}$(PdO$_{11}$)$_{3}$,0.0,eV/atom,
Cs$_{9}$AlO$_{4}$,0.0,eV/atom,
ThBi$_{2}$,0.0,eV/atom,
Nb$_{2}$Co$_{4}$O$_{9}$,0.01780000000000026,eV/atom,
LiCrS$_{2}$,0.6463000000000001,eV/atom,
HfAlNi$_{2}$,0.0,eV/atom,
Pr$_{12}$InPt$_{7}$,0.0,eV/atom,
BS$_{2}$N$_{2}$OF$_{7}$,4.937,eV/atom,
Ca$_{5}$Nb$_{5}$O$_{17}$,0.0,eV/atom,
CoBMo,0.0,eV/atom,
Sr$_{2}$CoO$_{3}$,0.5811,eV/atom,
NdCuSb$_{2}$,0.0,eV/atom,
Sc$_{2}$GaB$_{2}$Rh$_{5}$,0.0,eV/atom,
CaP$_{2}$H$_{20}$C$_{4}$(N$_{2}$O$_{3}$)$_{4}$,5.135599999999999,eV/atom,
CaHClO,5.327,eV/atom,
Ca$_{2}$CuO$_{3}$,0.0,eV/atom,
GaSi$_{2}$As(H$_{3}$C)$_{8}$,3.7194000000000003,eV/atom,
Lu$_{3}$InN,0.0,eV/atom,
PuPt$_{4}$,0.0,eV/atom,
Li$_{8}$Pb$_{3}$,0.0,eV/atom,
CsCl,4.9881,eV/atom,
K$_{4}$Rb$_{2}$Co$_{2}$O$_{5}$,1.0943000000000003,eV/atom,
Ba(BrO)$_{2}$,0.0,eV/atom,
K$_{2}$PbO$_{3}$,1.2096,eV/atom,
CuH$_{8}$C$_{2}$Br$_{3}$NO,0.0,eV/atom,
Na(CO)$_{2}$,2.5015,eV/atom,
Na$_{3}$CoO$_{2}$,1.3483,eV/atom,
Ho$_{5}$S$_{7}$,0.0,eV/atom,
CaCl$_{2}$,5.5968,eV/atom,
NbC$_{2}$NCl$_{8}$,2.3142,eV/atom,
DyAgPb,0.0,eV/atom,
Tl$_{3}$Ag$_{3}$(AsS$_{3}$)$_{2}$,1.4529000000000005,eV/atom,
Ca$_{5}$Te$_{3}$O$_{14}$,1.6785,eV/atom,
Cd$_{2}$Te$_{2}$O$_{7}$,1.7272999999999996,eV/atom,
CrCuH$_{18}$Br$_{5}$N$_{6}$,0.0298,eV/atom,
CoAg(NO$_{3}$)$_{3}$,2.4274,eV/atom,
Nd$_{6}$S$_{4}$N$_{3}$Cl,1.2028000000000003,eV/atom,
NbPt$_{3}$,0.0,eV/atom,
UTl$_{2}$(MoO$_{5}$)$_{2}$,2.2166,eV/atom,
LiAuS,1.5804,eV/atom,
MnCu$_{2}$SnSe$_{4}$,0.0,eV/atom,
CeAg$_{6}$(NO$_{3}$)$_{9}$,0.0,eV/atom,
LiAu$_{3}$,0.0,eV/atom,
Sr(ZnAs)$_{2}$,0.25660000000000016,eV/atom,
Fe$_{3}$NiN,0.0,eV/atom,
Rb$_{2}$SnAs$_{2}$,0.6783999999999999,eV/atom,
HoSnPd,0.0,eV/atom,
LuAlGe,0.0,eV/atom,
AgF,0.0,eV/atom,
TaNi$_{3}$,0.0,eV/atom,
MnPd$_{3}$,0.0,eV/atom,
Th(NiGe)$_{2}$,0.0,eV/atom,
BaSr(FeO$_{2}$)$_{4}$,0.5324000000000001,eV/atom,
CuI,1.2172,eV/atom,
SrUO$_{4}$,1.9691000000000005,eV/atom,
TlBi$_{2}$,0.0,eV/atom,
Pr(CoP)$_{2}$,0.0,eV/atom,
ThReB$_{4}$,0.0,eV/atom,
Pr$_{3}$CuGeS$_{7}$,1.6603000000000003,eV/atom,
Li$_{4}$GeS$_{4}$,2.4834,eV/atom,
OsO$_{2}$F$_{3}$,0.5744,eV/atom,
Rb$_{2}$(PSe$_{2}$)$_{3}$,1.4027999999999998,eV/atom,
Rb$_{2}$NiF$_{4}$,4.5279,eV/atom,
NaMo$_{2}$P$_{3}$O$_{13}$,2.2668,eV/atom,
Nd$_{2}$P$_{3}$(HO$_{2}$)$_{5}$,5.675,eV/atom,
Cs$_{2}$NiO$_{2}$,2.6343,eV/atom,
NpRh$_{3}$,0.0,eV/atom,
Pr$_{5}$Ge$_{3}$,0.0,eV/atom,
Na$_{3}$Li$_{3}$In$_{2}$F$_{12}$,5.2896,eV/atom,
Li$_{2}$UO$_{4}$,2.1005,eV/atom,
HoSnAu,0.0235000000000003,eV/atom,
Sr$_{5}$Nb$_{4}$O$_{15}$,2.5561000000000003,eV/atom,
K$_{2}$MoCl$_{5}$O,2.7579,eV/atom,
Mg$_{2}$V$_{2}$O$_{7}$,3.1296,eV/atom,
Ba$_{4}$LiMo$_{2}$N$_{7}$,1.7645,eV/atom,
La$_{2}$Ge$_{5}$Rh$_{3}$,0.0,eV/atom,
Na$_{3}$Li$_{3}$V$_{2}$F$_{12}$,0.0,eV/atom,
CsUTe$_{3}$Au,0.0,eV/atom,
Ag$_{2}$Bi$_{2}$S$_{3}$Cl$_{2}$,1.6367999999999996,eV/atom,
LaTe,0.0,eV/atom,
K$_{2}$Cu$_{5}$H$_{8}$(Cl$_{4}$O$_{3}$)$_{2}$,0.20890000000000009,eV/atom,
HfNi$_{5}$,0.0,eV/atom,
Th$_{7}$Te$_{12}$,0.0,eV/atom,
BiIrS,0.7319999999999993,eV/atom,
UHg$_{2}$,0.0,eV/atom,
CS$_{3}$NO$_{2}$F$_{3}$,3.2456,eV/atom,
Nd(BRu)$_{2}$,0.0,eV/atom,
YbBPd$_{3}$,0.0,eV/atom,
MnPtF$_{6}$,1.8679000000000001,eV/atom,
Nb$_{6}$InCl$_{15}$,0.9209,eV/atom,
Ni$_{5}$SbH$_{17}$C$_{15}$NO$_{9}$,1.4675999999999998,eV/atom,
AlPt,0.0,eV/atom,
Sr$_{2}$CaIrO$_{6}$,0.0,eV/atom,
YbPS$_{4}$,0.0,eV/atom,
Sr$_{4}$Mn$_{3}$O$_{10}$,1.299,eV/atom,
K$_{2}$FeOF$_{5}$,0.7913000000000001,eV/atom,
TiZn(BiO$_{3}$)$_{2}$,1.5478,eV/atom,
NdCo$_{5}$,0.0,eV/atom,
Na(CoO$_{2}$)$_{2}$,0.581,eV/atom,
Li$_{2}$B$_{4}$O$_{7}$,3.7379000000000002,eV/atom,
Na$_{2}$Te$_{4}$O$_{9}$,3.1228,eV/atom,
ZnCu$_{2}$GeS$_{4}$,0.4664999999999999,eV/atom,
Nb$_{2}$CS$_{2}$,0.0,eV/atom,
Zn$_{2}$SiO$_{4}$,2.5427999999999997,eV/atom,
GdO$_{2}$,0.0,eV/atom,
CsH$_{24}$Rh(SO$_{10}$)$_{2}$,2.8625,eV/atom,[Rh+3].[Cs+].O=S(=O)([O-])[O-].O=S(=O)([O-])[O-].O.O.O.O.O.O.O.O.O.O.O.O
TiFe$_{2}$Ge,0.1708999999999996,eV/atom,
Ba$_{2}$UCu$_{2}$S$_{5}$,3.9999999999995595E-4,eV/atom,
ZnH$_{3}$CNO$_{3}$,3.6736,eV/atom,
CaMgNiH$_{4}$,1.8729999999999998,eV/atom,
Gd$_{2}$CuO$_{4}$,0.0,eV/atom,
HoGaPt,0.0,eV/atom,
SrMgSi$_{2}$,0.0,eV/atom,
NdCuO$_{2}$,2.4050999999999996,eV/atom,
KAlSi$_{3}$O$_{8}$,4.9267,eV/atom,
CsAg$_{3}$S$_{2}$,0.41100000000000003,eV/atom,
UAsH$_{9}$O$_{10}$,2.5299,eV/atom,
SrFe$_{3}$P$_{4}$HO$_{16}$,2.3865,eV/atom,
CdI$_{2}$,2.3571999999999997,eV/atom,
KCdGeAs$_{2}$,0.6342000000000001,eV/atom,
P(W$_{2}$O$_{7}$)$_{2}$,0.0,eV/atom,
Li$_{4}$P$_{2}$O$_{7}$,5.581300000000001,eV/atom,
Ga$_{2}$Sn$_{2}$S$_{5}$,1.6968,eV/atom,
Pr(SiPd)$_{2}$,0.0,eV/atom,
Dy$_{2}$Ru$_{2}$O$_{7}$,0.0,eV/atom,
Ho$_{3}$ReO$_{7}$,0.0,eV/atom,
HClO$_{4}$,4.8339,eV/atom,O=Cl(=O)(=O)O
Na$_{2}$Gd$_{2}$B$_{2}$O$_{7}$,3.0607000000000006,eV/atom,
Np$_{2}$Si$_{4}$Mo$_{3}$,0.0,eV/atom,
N$_{2}$,6.9553,eV/atom,
Ba$_{2}$Ni(PO$_{4}$)$_{2}$,3.8444,eV/atom,
NdNiGe$_{2}$,0.0,eV/atom,
CsHg$_{2}$,0.0,eV/atom,
ScCoGe,0.0,eV/atom,
Sr$_{3}$In$_{11}$,0.0,eV/atom,
Ho(TiGa$_{2}$)$_{2}$,0.0,eV/atom,
K$_{2}$Zn(H$_{2}$N)$_{4}$,1.98,eV/atom,
LuAlAu,0.0,eV/atom,
CdBiS$_{2}$Br,1.9500000000000002,eV/atom,
Ru$_{5}$C$_{14}$(SO$_{7}$)$_{2}$,1.7639,eV/atom,
Lu$_{2}$Ru$_{2}$O$_{7}$,0.0,eV/atom,
MgH$_{10}$(SeO$_{5}$)$_{2}$,4.7347,eV/atom,
Ti(Bi$_{3}$O$_{5}$)$_{4}$,2.3129999999999997,eV/atom,
Sr(Mo$_{3}$S$_{4}$)$_{2}$,0.0,eV/atom,
PbI$_{2}$,2.4080000000000004,eV/atom,
NiHg,0.0,eV/atom,
Nd$_{3}$Sb$_{4}$Pt$_{7}$,0.002200000000000202,eV/atom,
CrSe,0.0,eV/atom,
Sc$_{2}$MnB$_{2}$Rh$_{5}$,0.0,eV/atom,
LiLa$_{5}$Ti$_{8}$O$_{24}$,1.9348999999999998,eV/atom,
KRuO$_{4}$,0.0,eV/atom,
CaCrH$_{2}$O$_{5}$,2.9199,eV/atom,
K$_{8}$Zr(MoO$_{4}$)$_{6}$,3.895,eV/atom,
K$_{3}$InCl$_{6}$,3.4614000000000003,eV/atom,
BaCoO$_{3}$,0.0,eV/atom,
MgSiH$_{12}$(OF)$_{6}$,5.6666,eV/atom,
Ga$_{2}$O$_{3}$,2.0077999999999996,eV/atom,
V$_{3}$Sb$_{2}$,0.0,eV/atom,
Na$_{2}$YbC$_{2}$O$_{6}$F,0.0,eV/atom,
Ga$_{3}$Os,0.6734,eV/atom,
YCu$_{2}$,0.0,eV/atom,
Tm(CoGe)$_{2}$,0.0,eV/atom,
SrMn(SeO$_{3}$)$_{2}$,3.3822,eV/atom,
SiO$_{2}$,5.6417,eV/atom,
NdTeCl,0.41999999999999993,eV/atom,
YAlPt,0.0,eV/atom,
Hf$_{3}$Te$_{2}$,0.0,eV/atom,
ZrU$_{3}$Sb$_{5}$,0.0,eV/atom,
Pr(ClO$_{4}$)$_{3}$,4.8822,eV/atom,
Cs$_{2}$PdSe$_{8}$,1.2163,eV/atom,
SrAgTeF,1.2797999999999998,eV/atom,
Sr$_{2}$TaInO$_{6}$,4.023299999999999,eV/atom,
TiO$_{2}$,2.7733,eV/atom,
SrV$_{6}$O$_{11}$,0.0,eV/atom,
Sm$_{2}$InPd$_{2}$,0.0,eV/atom,
BaCa(CO$_{3}$)$_{2}$,4.126200000000001,eV/atom,
InP,0.0,eV/atom,
SrFe$_{2}$(SeO$_{3}$)$_{4}$,2.3146000000000004,eV/atom,
Ba$_{4}$Ni$_{3}$Ge$_{20}$,0.0,eV/atom,
K$_{3}$MnCrO$_{8}$,0.8097,eV/atom,
RbAlF$_{4}$,6.8752,eV/atom,
B$_{9}$N,0.0,eV/atom,
Na$_{2}$Co(NO$_{3}$)$_{4}$,3.1828000000000003,eV/atom,
K$_{3}$Na$_{2}$SnAs$_{3}$,0.5786000000000002,eV/atom,
P$_{3}$NCl$_{12}$,1.9051,eV/atom,
RbP(HO$_{2}$)$_{2}$,5.0879,eV/atom,
NbCoGe,0.0,eV/atom,
CsTiH$_{24}$(SO$_{10}$)$_{2}$,0.0,eV/atom,
Pu$_{2}$Zn$_{17}$,0.0,eV/atom,
Pr$_{2}$CdPd$_{2}$,0.0,eV/atom,
Er$_{3}$(CuGe)$_{4}$,0.0,eV/atom,
K$_{2}$Zn$_{3}$O$_{4}$,1.4082999999999999,eV/atom,
YMg$_{4}$Cu,0.0,eV/atom,
Nd$_{2}$H$_{16}$S$_{3}$O$_{20}$,5.4556,eV/atom,
H$_{32}$WC$_{8}$N$_{4}$Cl$_{7}$,1.6809,eV/atom,
TbTaO$_{4}$,4.1244,eV/atom,
CaCO$_{3}$,4.9926,eV/atom,
CeDyS$_{3}$,0.0,eV/atom,
TaBe$_{12}$,0.0,eV/atom,
CsCdBr$_{3}$,2.9022,eV/atom,
GaI$_{3}$,2.3617,eV/atom,
FeH$_{4}$(ClO)$_{2}$,4.1399,eV/atom,
Tb$_{2}$InAu$_{2}$,0.0,eV/atom,
Nd$_{5}$Ru$_{2}$,0.0,eV/atom,
Ca$_{2}$Si,0.5549,eV/atom,
Ag$_{2}$GePbS$_{4}$,1.4887000000000006,eV/atom,
SmZn$_{2}$,0.0,eV/atom,
K$_{2}$BiPWO$_{8}$,4.0502,eV/atom,
Sm$_{2}$Ga$_{8}$Co,0.0,eV/atom,
UAl$_{4}$,0.0,eV/atom,
Ta$_{2}$H,0.0,eV/atom,
Th$_{3}$Ge$_{2}$,0.0,eV/atom,
Ho$_{2}$Mn$_{3}$Si$_{5}$,0.0,eV/atom,
Hf$_{5}$Ga$_{3}$,0.0,eV/atom,
K$_{3}$Bi$_{2}$(AsO$_{4}$)$_{3}$,3.3384,eV/atom,
LuAl$_{7}$Au$_{3}$,0.0,eV/atom,
Li$_{5}$FeO$_{4}$,3.0546,eV/atom,
VZnHPbO$_{5}$,2.9905,eV/atom,
Cu(SbO$_{3}$)$_{2}$,0.0,eV/atom,
KBe$_{2}$B$_{3}$O$_{7}$,4.949,eV/atom,
BaTiS$_{3}$,0.0,eV/atom,
SrHfN$_{2}$,0.31540000000000035,eV/atom,
UIrPt$_{4}$,0.0,eV/atom,
RbPaF$_{6}$,3.984,eV/atom,
LuNi$_{4}$B,0.0,eV/atom,