formula,Property band_gap,Property band_gap units,Property SMILES
Tl$_{2}$(SbO$_{3}$)$_{3}$,0,eV/atom,
SbN$_{6}$Cl,0.5765,eV/atom,
CO$_{2}$,6.3098,eV/atom,
MgB$_{4}$O$_{7}$,5.7433000000000005,eV/atom,
Tb$_{3}$CrSe$_{6}$,0.13260000000000005,eV/atom,
CeTl$_{5}$Fe$_{2}$(NO$_{2}$)$_{12}$,0.0,eV/atom,
ZrB$_{12}$,0.0,eV/atom,
YNi$_{2}$,0.0,eV/atom,
Hf(GaFe)$_{6}$,0.0,eV/atom,
K$_{3}$Nb$_{2}$AsSe$_{11}$,1.1647999999999998,eV/atom,
KSnN$_{3}$,0.28590000000000004,eV/atom,
SiO$_{2}$,4.3926,eV/atom,
FeAg$_{2}$SnS$_{4}$,0.0,eV/atom,
U$_{2}$Co$_{3}$Si,0.0,eV/atom,
CuHgC$_{4}$(SN)$_{4}$,0.3338,eV/atom,
Cs$_{3}$MnCl$_{5}$,2.8967,eV/atom,
Cs$_{2}$MnOF$_{5}$,0.0,eV/atom,
K$_{3}$Sm(AsS$_{4}$)$_{2}$,1.6795000000000002,eV/atom,
Sm$_{3}$CuSiS$_{7}$,1.6556999999999995,eV/atom,
InOF,1.7761000000000005,eV/atom,
Rb$_{4}$CO$_{4}$,0.9499,eV/atom,
Ag$_{2}$P$_{2}$PbO$_{7}$,2.4212,eV/atom,
MgSiO$_{3}$,4.2049,eV/atom,
NaV$_{2}$O$_{5}$,0.5146999999999999,eV/atom,
Sr(AlSe$_{2}$)$_{2}$,2.9755,eV/atom,
K$_{3}$La(AsO$_{4}$)$_{2}$,3.857,eV/atom,
C$_{12}$SeF$_{10}$,2.7508,eV/atom,
Na$_{3}$In$_{2}$Ag,0.0,eV/atom,
ErZn$_{12}$,0.0,eV/atom,
Na$_{2}$Te$_{3}$Mo$_{3}$O$_{16}$,2.6369000000000002,eV/atom,
K$_{2}$GeF$_{6}$,5.799799999999999,eV/atom,
Pr$_{2}$Bi,0.0,eV/atom,
Cs$_{3}$Fe$_{2}$F$_{9}$,4.0304,eV/atom,
Rb$_{3}$(FeSe$_{2}$)$_{2}$,0.0,eV/atom,
V$_{2}$P,0.0,eV/atom,
CrCuSe$_{2}$,0.0,eV/atom,
KNb$_{3}$O$_{8}$,2.4762,eV/atom,
Ce$_{4}$(LuS$_{2}$)$_{11}$,0.0,eV/atom,
Si$_{3}$Os$_{2}$,0.7195,eV/atom,
Cs$_{2}$PtC$_{2}$,1.2698,eV/atom,
PrCoGe,0.0,eV/atom,
CrP$_{2}$H$_{15}$N$_{2}$O$_{11}$,3.7788,eV/atom,
Te$_{2}$Pd$_{3}$Pb$_{2}$,0.0,eV/atom,
PrHgPd,0.0,eV/atom,
Eu$_{7}$Au$_{3}$,0.0,eV/atom,
CsYHgSe$_{3}$,1.3946,eV/atom,
Li$_{2}$CdSiO$_{4}$,2.8338,eV/atom,
BaAsAu,0.3460000000000001,eV/atom,
Cs(FeAs)$_{2}$,0,eV/atom,
Nd$_{5}$Te$_{2}$Cl$_{3}$O$_{10}$,3.3381,eV/atom,
Li$_{2}$La$_{2}$Ti$_{3}$O$_{10}$,2.073899999999999,eV/atom,
Li$_{2}$B$_{4}$O$_{7}$,5.668,eV/atom,
Hg$_{2}$Os$_{2}$O$_{7}$,0.0,eV/atom,
BaPbO$_{3}$,0.0,eV/atom,
Lu(PO$_{3}$)$_{3}$,5.666300000000001,eV/atom,
Sm$_{2}$B$_{4}$O$_{9}$,5.3793999999999995,eV/atom,
AlH$_{6}$N$_{2}$Cl$_{3}$,5.0335,eV/atom,
YZn$_{3}$,0.0,eV/atom,
PuSe,0.0,eV/atom,
RbLaTa$_{2}$O$_{7}$,2.2853000000000003,eV/atom,
RbNaS,2.2948,eV/atom,
YSnAu,0.0,eV/atom,
La$_{4}$Bi$_{2}$S$_{9}$,1.0769000000000002,eV/atom,
LiIO$_{3}$,3.7255000000000003,eV/atom,
Co$_{3}$Ag$_{2}$(P$_{2}$O$_{7}$)$_{2}$,2.1641,eV/atom,
Cs$_{2}$NaInF$_{6}$,5.304,eV/atom,
ZrCu$_{5}$,0.0,eV/atom,
Ho(MnSi)$_{2}$,0.0,eV/atom,
K$_{2}$Zn(PO$_{3}$)$_{4}$,4.8504,eV/atom,
Fe$_{2}$CuGe$_{2}$,0.0,eV/atom,
PrMgPd,0.0,eV/atom,
ZnB$_{8}$(H$_{2}$N)$_{4}$,0.0,eV/atom,
Ce$_{2}$SbO$_{2}$,0.0,eV/atom,
YbCu$_{2}$(MoO$_{4}$)$_{3}$,0.0,eV/atom,
NdTlPd,0.0,eV/atom,
PrFeAsO,0.0,eV/atom,
As$_{2}$Pd,0.0,eV/atom,
Ho$_{3}$AlN,0.0,eV/atom,
CS$_{3}$N$_{5}$Cl,2.2804,eV/atom,
Ca$_{2}$H$_{3}$Br,1.5367999999999995,eV/atom,
Al$_{2}$S$_{3}$,2.653599999999999,eV/atom,
BaTeF$_{6}$,4.8353,eV/atom,
YbGa$_{4}$Ni,0.0,eV/atom,
SrZn$_{2}$(AsO$_{4}$)$_{2}$,2.8662,eV/atom,
Si$_{2}$Ge$_{3}$P$_{6}$O$_{25}$,4.0974,eV/atom,
BaPuO$_{3}$,0.0,eV/atom,
Ti$_{3}$AlN,0.0,eV/atom,
GaAuO$_{2}$,0.0,eV/atom,
CoH$_{2}$SeO$_{4}$,2.5755999999999997,eV/atom,
K$_{3}$BeF$_{5}$,6.2164,eV/atom,
Er$_{3}$(FeGe)$_{4}$,0.0,eV/atom,
Th$_{7}$Co$_{3}$,0.0,eV/atom,
Eu$_{2}$Zn$_{3}$Ge,0.0,eV/atom,
KCN$_{3}$O$_{2}$,3.348,eV/atom,
LiSn$_{4}$Ru,0.0,eV/atom,
K$_{2}$U$_{3}$(TeO$_{7}$)$_{2}$,1.8406,eV/atom,
CsDyI$_{3}$,0.0,eV/atom,
RbPbF$_{3}$,4.294499999999999,eV/atom,
Fe$_{2}$Cu$_{3}$(SeO$_{3}$)$_{6}$,0.20589999999999975,eV/atom,
Tl(Cu$_{3}$S$_{2}$)$_{2}$,0.0,eV/atom,
MoS$_{2}$,0.0,eV/atom,
RbTe,0.4281999999999999,eV/atom,
Pb$_{2}$O$_{3}$,0.0,eV/atom,
Th$_{3}$Ga$_{2}$,0.0,eV/atom,
Pr$_{6}$S$_{4}$N$_{3}$Cl,1.1679999999999997,eV/atom,
H$_{4}$N$_{2}$O$_{3}$,3.2767,eV/atom,
Fe$_{12}$As$_{5}$,0.0,eV/atom,
Cs$_{2}$Ba$_{2}$(CO$_{3}$)$_{3}$,4.3381,eV/atom,
Ce$_{3}$Si$_{2}$,0.0,eV/atom,
Hf$_{3}$(CuSi)$_{4}$,0.0,eV/atom,
Mo$_{9}$Se$_{11}$,0.0,eV/atom,
H$_{13}$Se$_{2}$N$_{3}$O$_{8}$,3.6556,eV/atom,
Sr$_{2}$TmReO$_{6}$,0.0,eV/atom,
TcOF$_{4}$,0.9928999999999999,eV/atom,
Sr$_{2}$PbO$_{4}$,1.3966000000000003,eV/atom,
Ti(TlS)$_{4}$,2.4818999999999996,eV/atom,
ScVO$_{4}$,2.4929,eV/atom,
ErSe$_{2}$,0.0,eV/atom,
Ba$_{4}$Yb(CuO$_{3}$)$_{3}$,0.0,eV/atom,
CsNa$_{2}$Si$_{17}$,0.0,eV/atom,
Ba$_{2}$Ca(PdO$_{2}$)$_{3}$,1.2944000000000004,eV/atom,
YbCrO$_{4}$,2.3211,eV/atom,
Tc(CO)$_{5}$,2.9446999999999997,eV/atom,
Ti$_{2}$H$_{3}$,0.0,eV/atom,
SiO$_{2}$,5.6081,eV/atom,
CaPtPb,0.0,eV/atom,
Nd$_{4}$(GeS$_{4}$)$_{3}$,1.9952999999999994,eV/atom,
Ca$_{2}$Fe$_{9}$O$_{13}$,0.0,eV/atom,
Pr$_{11}$In$_{9}$Ni$_{4}$,0.0,eV/atom,
Cd$_{3}$In,0.0,eV/atom,
Ca$_{3}$Si$_{2}$O$_{7}$,4.4296,eV/atom,
U(GeRh)$_{2}$,0.0011999999999998678,eV/atom,
La$_{3}$U(ClO$_{2}$)$_{3}$,1.5601000000000003,eV/atom,
Er$_{2}$GeRh$_{3}$,0.0,eV/atom,
Cs$_{3}$Nd(PS$_{4}$)$_{2}$,2.1845000000000003,eV/atom,
NdAl$_{3}$Ni$_{2}$,0.0,eV/atom,
UAs$_{2}$H$_{6}$O$_{11}$,2.3704,eV/atom,
Yb$_{3}$Ga$_{9}$Pd$_{2}$,0.0,eV/atom,
PuB$_{2}$C,0.0,eV/atom,
SiIr$_{3}$,0.0,eV/atom,
Ba$_{2}$LiGe$_{3}$,0.09699999999999998,eV/atom,
ErAsPd,0.0,eV/atom,
RbB$_{5}$(H$_{2}$O$_{3}$)$_{4}$,0.0,eV/atom,
Th$_{2}$Co$_{17}$,0.0,eV/atom,
Ca$_{3}$(AlSi)$_{2}$,0.0,eV/atom,
P$_{10}$Au$_{7}$I,0.5276999999999994,eV/atom,
Er$_{5}$Si$_{3}$C,0.0,eV/atom,
LaSbSe,0.38709999999999933,eV/atom,
Cs$_{3}$PO$_{4}$,3.5722999999999994,eV/atom,
Li$_{12}$Si$_{7}$,0.0,eV/atom,
SrAgP,0.11359999999999992,eV/atom,
Al$_{3}$Mo,0.0,eV/atom,
VHgO$_{3}$,2.3004,eV/atom,
Er(Al$_{2}$Fe)$_{4}$,0.0,eV/atom,
Mg(PtO$_{2}$)$_{3}$,0.2984,eV/atom,
V(PO$_{3}$)$_{3}$,2.2644,eV/atom,
ErMnNi$_{4}$,0.0,eV/atom,
Na$_{4}$CoAuO$_{5}$,1.7823,eV/atom,
Ba$_{4}$Ge$_{20}$Pd$_{3}$,0.0,eV/atom,
CdI$_{2}$,2.3729000000000005,eV/atom,
Rb$_{3}$BrO,0.40979999999999994,eV/atom,
Sr$_{2}$FeMoO$_{6}$,0.06979999999999986,eV/atom,
Na$_{2}$BH$_{4}$ClO$_{4}$,4.583799999999999,eV/atom,
Pb$_{9}$(Br$_{5}$O$_{2}$)$_{2}$,2.9011000000000005,eV/atom,
K$_{2}$Se$_{3}$,0.6329999999999999,eV/atom,
CeN,0.0,eV/atom,
Pb$_{3}$(IO)$_{2}$,2.2335,eV/atom,
Nd$_{2}$Mo$_{2}$O$_{7}$,1.3538000000000001,eV/atom,
Sc(VGa$_{2}$)$_{2}$,0.0,eV/atom,
LaSiNi,0.0,eV/atom,
Sr(AlAu)$_{2}$,0.0,eV/atom,
Ga$_{3}$Pd$_{5}$,0.0,eV/atom,
NiBiO$_{3}$,0.45399999999999974,eV/atom,
K$_{3}$NdSi$_{7}$O$_{17}$,4.713500000000001,eV/atom,
BaYAgSe$_{3}$,1.3282000000000003,eV/atom,
Ti$_{2}$Cu(PO$_{5}$)$_{2}$,0.5587,eV/atom,
NaB(CO$_{2}$)$_{4}$,3.5338,eV/atom,
Ag$_{3}$BO$_{3}$,0.8717000000000001,eV/atom,
Dy(NiP)$_{2}$,0.0,eV/atom,
CeCuSn,0.0,eV/atom,
ZrO$_{2}$,2.8574,eV/atom,
KTaPS$_{6}$,1.7348999999999999,eV/atom,
H$_{14}$C$_{4}$NF$_{3}$,7.115600000000001,eV/atom,
La$_{2}$P$_{3}$H$_{7}$O$_{11}$,4.4891000000000005,eV/atom,
Si$_{3}$N$_{4}$,4.026700000000001,eV/atom,
SeN,1.9512999999999998,eV/atom,
Sr$_{2}$CdWO$_{6}$,3.5352,eV/atom,
Dy$_{5}$(In$_{2}$Ni)$_{2}$,0.0,eV/atom,
Cs$_{2}$Ni$_{3}$S$_{4}$,0.8488000000000002,eV/atom,
Ti$_{2}$Rh,0.0,eV/atom,
KHgF$_{3}$,0.6158999999999999,eV/atom,
Cd$_{2}$As$_{3}$I,0.7611999999999997,eV/atom,
Dy$_{5}$Pb$_{3}$,0.0,eV/atom,
AgTe,0.24110000000000031,eV/atom,
Rb$_{2}$SnO$_{2}$,2.2294,eV/atom,
RbFeP$_{2}$O$_{7}$,2.4814000000000003,eV/atom,
ZrSiIr,0.0,eV/atom,
MnPSe$_{3}$,0.0,eV/atom,
Yb$_{11}$(U$_{2}$S$_{11}$)$_{2}$,0.0,eV/atom,
Cs$_{2}$TlVF$_{6}$,0.0,eV/atom,
K$_{6}$Pb$_{2}$O$_{5}$,2.1249000000000002,eV/atom,
Ba$_{3}$SrTa$_{2}$O$_{9}$,3.3693,eV/atom,
NbCl$_{4}$F,2.5076,eV/atom,
TlZnPO$_{4}$,3.8952,eV/atom,
Cs$_{2}$CrO$_{4}$,3.2422000000000004,eV/atom,
YCuAs$_{2}$,0.0,eV/atom,
CeZr$_{7}$O$_{16}$,2.1228000000000002,eV/atom,
K$_{6}$CoMo$_{5}$O$_{19}$,2.805,eV/atom,
La$_{2}$Ti$_{2}$O$_{7}$,2.746600000000001,eV/atom,
Rb$_{3}$Ta$_{2}$S$_{11}$,1.6649000000000003,eV/atom,
KNiIO$_{6}$,1.7517999999999998,eV/atom,
Mn$_{3}$H$_{24}$(O$_{3}$F$_{2}$)$_{4}$,0.9821000000000001,eV/atom,
KH$_{8}$N$_{3}$,2.5334,eV/atom,
MgPb$_{2}$WO$_{6}$,2.8636,eV/atom,
Se,1.6545,eV/atom,
HoAs,0.0,eV/atom,
Ba$_{3}$P$_{4}$O$_{13}$,5.1231,eV/atom,
Nb$_{3}$Sn,0.0,eV/atom,
Ba$_{2}$Y(CuO$_{2}$)$_{4}$,0.0,eV/atom,
CdSeO$_{3}$,3.0881,eV/atom,
H$_{4}$CS(NO)$_{3}$,3.3221000000000003,eV/atom,
In$_{3}$Co,0.0,eV/atom,
Pr$_{6}$Fe$_{13}$Ag,0.0,eV/atom,
CsTi$_{3}$Si$_{2}$P$_{6}$O$_{25}$,0.0,eV/atom,
Cu$_{2}$P$_{2}$PbO$_{8}$,0.35749999999999993,eV/atom,
ZnCuTeCl$_{2}$O$_{3}$,9.999999999998899E-5,eV/atom,
Na$_{5}$CuSO$_{2}$,1.5228,eV/atom,
Ba$_{6}$Na$_{2}$Cr$_{2}$Ru$_{2}$O$_{17}$,0.0,eV/atom,
H$_{3}$Ru$_{3}$Rh(CO)$_{12}$,2.4621,eV/atom,
VBi(PbO$_{3}$)$_{2}$,2.6272,eV/atom,
Pb$_{5}$SO$_{8}$,2.4636000000000005,eV/atom,
PbWO$_{4}$,1.9524,eV/atom,
Sr$_{3}$(GaO$_{3}$)$_{2}$,3.5262,eV/atom,[Sr+2].[Sr+2].[Sr+2].O=C([O-])C1=CC(O)=C(O)C(O)=C1.O=C([O-])C1=CC(O)=C(O)C(O)=C1
SiAs$_{2}$,0.8847999999999998,eV/atom,
Zn$_{2}$P$_{2}$O$_{7}$,3.6447,eV/atom,
Dy$_{3}$TaO$_{7}$,3.4082999999999997,eV/atom,
SrSiPd,0.0,eV/atom,
KTl$_{2}$MoF$_{6}$,2.5052000000000003,eV/atom,
LiTa$_{3}$O$_{8}$,2.6101,eV/atom,
CeBe$_{13}$,0.0,eV/atom,
Eu$_{2}$VO$_{4}$,5.999999999994898E-4,eV/atom,
LiPN$_{2}$,3.8015999999999996,eV/atom,
EuMg$_{2}$Fe,0.0,eV/atom,
CuC$_{2}$S$_{2}$(OF)$_{6}$,0.2384,eV/atom,
CuI,1.6308000000000002,eV/atom,
K$_{3}$SbS$_{4}$,2.1699,eV/atom,
RbGd(WO$_{4}$)$_{2}$,3.2401999999999997,eV/atom,
PbI$_{2}$,2.3829000000000002,eV/atom,
DyInAu$_{2}$,0.0,eV/atom,
Eu(NO$_{3}$)$_{3}$,0.0,eV/atom,[Eu+3].O=[N+]([O-])[O-].O=[N+]([O-])[O-].O=[N+]([O-])[O-]
ThFe$_{2}$SiC,0.0,eV/atom,
LuTa$_{6}$Br$_{13}$O$_{3}$,0.9255,eV/atom,
MgC$_{2}$,2.562,eV/atom,
Pr(AlZn)$_{2}$,0.0,eV/atom,
TbCo$_{2}$,0.0,eV/atom,
Al$_{22}$Mo$_{5}$,0.0,eV/atom,
Tm$_{3}$Ga$_{8}$Rh$_{3}$,0.0,eV/atom,
Dy$_{2}$Fe$_{14}$B,0.0,eV/atom,
ZrCoGe,0.0,eV/atom,
Sr(CdSb)$_{2}$,0.0,eV/atom,
YH$_{5}$S$_{3}$O$_{13}$,5.6236,eV/atom,
BaZn$_{2}$,0.0,eV/atom,
GaCuS$_{2}$,0.7056000000000004,eV/atom,
BaAlSiH,0.7094,eV/atom,
K$_{2}$FePH$_{5}$(CO$_{5}$)$_{2}$,2.5254,eV/atom,
SrU,0.0,eV/atom,
TmNiBi,0.15039999999999942,eV/atom,
Sm$_{2}$O$_{3}$,3.7823,eV/atom,
ZrMo$_{2}$,0.0,eV/atom,
K$_{2}$Na$_{2}$IrO$_{4}$,0.33850000000000025,eV/atom,
Na$_{4}$CO$_{4}$,3.3335,eV/atom,
Bi$_{2}$Mo$_{2}$O$_{9}$,2.8031,eV/atom,
Na$_{3}$Sr(BO$_{2}$)$_{5}$,4.561,eV/atom,
LiDyO$_{2}$,3.9642999999999997,eV/atom,
Sr$_{3}$As$_{4}$,0.6184000000000003,eV/atom,
AlSeBr$_{3}$N,1.8812,eV/atom,
K$_{2}$Ag(AsSe$_{2}$)$_{3}$,1.3199999999999998,eV/atom,
SiH$_{12}$C$_{2}$(NF$_{3}$)$_{2}$,6.8492,eV/atom,F[Si-2](F)(F)(F)(F)F.C[NH3+].C[NH3+]
As$_{2}$Pb$_{8}$O$_{13}$,2.0589999999999997,eV/atom,
Ga$_{2}$O$_{3}$,1.1942,eV/atom,
Sr$_{3}$CaRu$_{2}$O$_{9}$,0.0,eV/atom,
EuInPt$_{4}$,0.0,eV/atom,
K$_{2}$MgH$_{8}$(SO$_{6}$)$_{2}$,5.175999999999999,eV/atom,
DyHg,0.0,eV/atom,
AlH$_{2}$PbO$_{2}$F$_{3}$,4.494199999999999,eV/atom,
GdH$_{18}$(IO$_{3}$)$_{3}$,2.0964,eV/atom,
Rb$_{3}$SiF$_{7}$,5.6568,eV/atom,
YbMnSi,0.0,eV/atom,
U(CuAs)$_{2}$,0.0,eV/atom,
Se,1.3901999999999999,eV/atom,
Hg$_{3}$(SI)$_{2}$,1.3129,eV/atom,
TaGaCo$_{2}$,0.0,eV/atom,
Zr$_{3}$P$_{3}$Pd$_{4}$,0.0,eV/atom,
InAsPt$_{5}$,0.0,eV/atom,
Na$_{6}$PbO$_{4}$,1.3501000000000003,eV/atom,
CoH$_{20}$S$_{2}$(NO$_{7}$)$_{2}$,3.2756,eV/atom,[Co].O=S(=O)([O-])[O-].O.O.O.O.O.O.[NH4+].[NH4+]
Pr$_{6}$Si$_{4}$S$_{17}$,2.5372000000000003,eV/atom,
Rb$_{3}$As$_{11}$,1.4693,eV/atom,
CsSb$_{2}$F$_{7}$,4.2993,eV/atom,
Li$_{3}$GaF$_{6}$,6.2804,eV/atom,
As$_{5}$Pb$_{3}$S$_{10}$,0.0,eV/atom,
TeP$_{4}$H$_{26}$(NO$_{5}$)$_{4}$,3.5395,eV/atom,
Tl$_{2}$CdSnTe$_{4}$,0.3681000000000001,eV/atom,
Ba$_{3}$Y(BO$_{3}$)$_{3}$,3.8152999999999997,eV/atom,
B$_{2}$AsCl$_{2}$,3.3988,eV/atom,
CuH$_{3}$(NO$_{2}$)$_{3}$,0.4393,eV/atom,
AgCSN,2.685,eV/atom,
PtN$_{3}$O$_{4}$,0.12919999999999976,eV/atom,
MoS$_{2}$Cl$_{3}$,1.4364,eV/atom,
ErCdCu$_{4}$,0.0,eV/atom,
Na$_{2}$Cr$_{2}$O$_{7}$,2.6267,eV/atom,
SbXeF$_{9}$,2.1416,eV/atom,F[Xe+](F)F.F[Sb-](F)(F)(F)(F)F
Ca$_{2}$Fe$_{2}$Si$_{5}$HO$_{15}$,1.7469999999999999,eV/atom,
UGePd,0.0,eV/atom,
SbBr$_{3}$,3.3684,eV/atom,
Ga$_{3}$Pb$_{5}$F$_{19}$,4.7168,eV/atom,
YH$_{2}$(CO$_{3}$)$_{2}$,3.4584,eV/atom,[Y+3].O=C([O-])[O-].O=C([O-])C(=O)O.O
MgTe(PbO$_{3}$)$_{2}$,2.2615999999999996,eV/atom,
La(AuF$_{4}$)$_{3}$,2.1504,eV/atom,
NdTe,0.0,eV/atom,
TmTe$_{3}$,0.0,eV/atom,
ErTc$_{2}$,0.0,eV/atom,
Ca$_{2}$UO$_{5}$,2.1350000000000002,eV/atom,
Cr$_{3}$C$_{2}$,0.0,eV/atom,
PrCuPb,0.0,eV/atom,
ZrPdF$_{6}$,0.9909000000000001,eV/atom,
In$_{6}$TeO$_{12}$,1.0099,eV/atom,
V$_{3}$Cd$_{5}$P$_{6}$O$_{25}$,2.0086999999999997,eV/atom,
CsErTa$_{6}$Cl$_{18}$,1.3425000000000002,eV/atom,
RbLaSe$_{2}$,2.32,eV/atom,
CeP$_{5}$O$_{14}$,3.6495999999999995,eV/atom,
K$_{2}$Pd(NO$_{3}$)$_{4}$,1.9068,eV/atom,
Na$_{2}$Mn(H$_{2}$N)$_{4}$,0.0,eV/atom,
HfGaRh,0.0,eV/atom,
Tl$_{4}$S$_{3}$,0.8601000000000001,eV/atom,
KZnP$_{2}$H$_{5}$O$_{9}$,4.4686,eV/atom,
UH$_{12}$C$_{4}$N$_{4}$O$_{11}$,2.3849,eV/atom,
U$_{4}$Te$_{3}$O$_{4}$,0.0,eV/atom,
Na$_{4}$GeH$_{28}$(Se$_{2}$O$_{7}$)$_{2}$,2.0443,eV/atom,
K$_{2}$NaInP$_{2}$,1.0504000000000002,eV/atom,
TlSbF$_{6}$,4.3334,eV/atom,
Mn(H$_{2}$N)$_{2}$,0.22640000000000005,eV/atom,
K$_{2}$UCu$_{3}$S$_{5}$,0.0,eV/atom,
MnTePd,0.0,eV/atom,
K$_{2}$B$_{4}$H$_{8}$O$_{11}$,5.2011,eV/atom,
Pr(PRu)$_{2}$,0.0,eV/atom,
Sr$_{3}$Fe$_{2}$Cu$_{2}$S$_{2}$O$_{5}$,0.5308999999999999,eV/atom,
ZrGeO$_{4}$,3.7395000000000005,eV/atom,
TbCdNi$_{4}$,0.0,eV/atom,
KGd$_{2}$CuS$_{4}$,1.033,eV/atom,
Tl$_{7}$(Ag$_{18}$Te$_{11}$)$_{2}$,0.1921999999999997,eV/atom,
Tl$_{2}$TeO$_{3}$,1.9408000000000003,eV/atom,
K$_{2}$GeTe$_{4}$,1.0714000000000001,eV/atom,
CsLi(PO$_{3}$)$_{2}$,5.6245,eV/atom,
Ca(Fe$_{2}$O$_{3}$)$_{2}$,1.0958000000000006,eV/atom,
CaGe$_{2}$O$_{5}$,2.4285,eV/atom,
IrS$_{3}$Cl$_{11}$,1.8442,eV/atom,
GdSb,0.0,eV/atom,
TlTe,0.0,eV/atom,
YCo$_{3}$,0.0,eV/atom,
Ba$_{2}$SrWO$_{6}$,3.2478000000000002,eV/atom,
SiC,1.8149000000000006,eV/atom,
CrPO$_{4}$,1.8393000000000002,eV/atom,
NaH$_{9}$O$_{5}$,4.5247,eV/atom,
Ca(BeGe)$_{2}$,0.0,eV/atom,
Y$_{3}$TlC,0.0,eV/atom,
TiNiSb,0.0,eV/atom,
DyGeAu,0.0,eV/atom,
Mn$_{2}$O$_{7}$,1.8058000000000003,eV/atom,
Ba$_{2}$CoS$_{3}$,0.0,eV/atom,
RbP(HO$_{2}$)$_{2}$,5.184,eV/atom,
CeMnAsO,0.0,eV/atom,
NpSeO$_{5}$,0.07730000000000015,eV/atom,
ErSi$_{2}$,0.0,eV/atom,
Rb$_{2}$NaNiF$_{6}$,0.0,eV/atom,
Y$_{3}$IrI$_{3}$,0.0,eV/atom,
CsB$_{5}$O$_{8}$,5.9528,eV/atom,
YH$_{24}$C$_{9}$N$_{6}$(ClO)$_{3}$,4.636900000000001,eV/atom,
Al$_{2}$Si$_{2}$O$_{11}$,0.0,eV/atom,
Cs$_{3}$Bi$_{2}$I$_{9}$,2.3726,eV/atom,
LiYb(WO$_{4}$)$_{2}$,0.8205,eV/atom,
CeTl$_{2}$P$_{2}$S$_{7}$,0.0,eV/atom,
La$_{5}$Pb$_{4}$,0.02200000000000024,eV/atom,
Ba$_{2}$NaIO$_{6}$,2.2172999999999994,eV/atom,
NaLi$_{2}$Mo$_{2}$P$_{3}$O$_{14}$,2.4341,eV/atom,
CdSO$_{3}$,3.3333,eV/atom,
CsAl(SiO$_{3}$)$_{2}$,4.7668,eV/atom,
Nb$_{5}$Si$_{3}$,0.0,eV/atom,
YPd$_{2}$Pb,0.0,eV/atom,
Cd(FeO$_{2}$)$_{2}$,1.8014,eV/atom,
Tl$_{3}$Hg$_{2}$S$_{3}$ClO$_{12}$,2.7432,eV/atom,
Ba$_{6}$Na$_{2}$As$_{2}$Ru$_{2}$O$_{17}$,0.4022000000000001,eV/atom,
Ba$_{2}$CaWO$_{6}$,3.3243,eV/atom,
In$_{5}$S$_{5}$Br,1.1099999999999994,eV/atom,
Mn$_{3}$GeIr,0.0,eV/atom,
Er$_{5}$Rh$_{3}$,0.0,eV/atom,
MgH$_{12}$(ClO$_{5}$)$_{2}$,3.202,eV/atom,
Ba$_{2}$TiO$_{4}$,4.2635,eV/atom,
LiAl(MoO$_{4}$)$_{2}$,3.6252000000000004,eV/atom,
Mg$_{3}$Si$_{2}$O$_{9}$,0.5684999999999998,eV/atom,
Tl$_{2}$TeS$_{3}$,1.2603000000000004,eV/atom,
Ca$_{5}$(CuO$_{2}$)$_{6}$,0.02870000000000017,eV/atom,
TaBe$_{3}$,0.0,eV/atom,
Na$_{9}$Co$_{2}$O$_{7}$,1.1915,eV/atom,
SrGa$_{2}$(SiO$_{4}$)$_{2}$,3.9542,eV/atom,
Dy(Ni$_{2}$B)$_{6}$,0.0,eV/atom,
Li$_{16}$Nb$_{2}$N$_{8}$O,3.3829000000000002,eV/atom,
Ca$_{5}$Au$_{2}$,0.0,eV/atom,
BaAg$_{2}$SnS$_{4}$,0.36030000000000006,eV/atom,
Nd$_{2}$CdGe$_{2}$,0.0,eV/atom,
Al$_{2}$HgS$_{4}$,2.0199000000000003,eV/atom,
H$_{8}$C$_{3}$S$_{2}$,3.9735,eV/atom,S(C)CSC
Np$_{3}$Tl,0.0,eV/atom,
TiS$_{3}$,0.22849999999999948,eV/atom,
CdNCl$_{3}$,2.0606999999999998,eV/atom,
Ba$_{3}$NiSb$_{2}$O$_{9}$,0.7625000000000002,eV/atom,
CdTe,0.0,eV/atom,
NdZn$_{3}$,0.0,eV/atom,
KGaCl$_{4}$,4.3612,eV/atom,
ErGa$_{4}$Ni,0.0,eV/atom,
Na$_{2}$Li$_{8}$U$_{11}$(WO$_{22}$)$_{2}$,1.2792000000000003,eV/atom,
KHoH$_{8}$RuC$_{6}$(N$_{3}$O$_{2}$)$_{2}$,3.6899,eV/atom,
Tb$_{2}$Si$_{3}$Rh,0.0,eV/atom,
Pr$_{2}$Co$_{2}$I,0.0,eV/atom,
In$_{6}$Se$_{7}$,0.019000000000000128,eV/atom,
SmSnRh,0.0,eV/atom,
La$_{5}$Ti$_{5}$O$_{17}$,0.0,eV/atom,
Th$_{3}$Tl$_{5}$,0.0,eV/atom,
YbAu$_{2}$,0.0,eV/atom,
LaTeCl,0.8772000000000002,eV/atom,
Nd$_{7}$V(Se$_{2}$O)$_{4}$,1.5176999999999996,eV/atom,
Mn(CrSe$_{2}$)$_{2}$,0.0,eV/atom,
TiIr$_{3}$,0.0,eV/atom,
GdCoSi$_{3}$,0.0,eV/atom,
Ba$_{21}$(Cd$_{2}$Sb$_{9}$)$_{2}$,0.7315,eV/atom,
BiRu$_{2}$(CO)$_{6}$,1.1317,eV/atom,
DyCu,0.0,eV/atom,
Hg$_{2}$SeO$_{3}$,2.3228,eV/atom,
Y$_{3}$Al$_{2}$,0.0,eV/atom,
Fe$_{2}$Ni(PO$_{4}$)$_{2}$,3.4083,eV/atom,
ScAsO$_{4}$,3.5491,eV/atom,
Zr$_{2}$PbC,0.0,eV/atom,
YH$_{12}$(ClO$_{2}$)$_{3}$,5.3678,eV/atom,
Yb$_{2}$FeC$_{4}$,0.0,eV/atom,
K$_{2}$P$_{2}$H$_{2}$O$_{7}$,4.7606,eV/atom,
KAl$_{2}$P$_{2}$H$_{5}$O$_{11}$,5.2526,eV/atom,
VH$_{9}$C$_{3}$O$_{4}$,2.6859,eV/atom,
Hg$_{4}$Sb$_{2}$I$_{3}$,0.7146000000000001,eV/atom,
TiFeCoGe,0.0,eV/atom,
TlBrO$_{3}$,3.6425,eV/atom,
Mg$_{2}$BN$_{2}$Cl,3.6701,eV/atom,
In$_{4}$Br$_{7}$,2.2916999999999996,eV/atom,
CaTi$_{2}$O$_{6}$,0.0,eV/atom,
Pr(NiSn)$_{2}$,0.0,eV/atom,
Cu$_{2}$SnHgS$_{4}$,0.012599999999999945,eV/atom,
Fe$_{15}$Co,0.0,eV/atom,
Cr$_{4}$Cu$_{3}$(PO$_{4}$)$_{6}$,0.0030999999999998806,eV/atom,
Nb$_{2}$V$_{4}$Si$_{5}$,0.0,eV/atom,
KBC$_{4}$NF$_{9}$,6.8492999999999995,eV/atom,
KLiSO$_{4}$,5.260300000000001,eV/atom,
NbFeSi,0.0,eV/atom,
GeBr$_{4}$,2.9329,eV/atom,
UPdSe$_{3}$,0.007100000000000328,eV/atom,
KH$_{13}$CBrNO$_{7}$,1.8195,eV/atom,
DyNiP,0.0,eV/atom,
Er$_{3}$CrS$_{6}$,0.23270000000000035,eV/atom,
Ni$_{2}$GeP,0.0,eV/atom,
Nd$_{2}$AlNO$_{3}$,1.0619999999999994,eV/atom,
KSbMoO$_{5}$,3.3347,eV/atom,
Ba$_{2}$Ti$_{2}$Si$_{2}$O$_{9}$F$_{2}$,3.3246999999999995,eV/atom,
Al$_{4}$SiC$_{4}$,0.0,eV/atom,
ScBiO$_{3}$,2.6630999999999996,eV/atom,
PuPt$_{2}$,0.0,eV/atom,
NdInRh,0.0,eV/atom,
Er$_{10}$Ru$_{10}$C$_{19}$,0.0,eV/atom,
Ba$_{2}$ReNiO$_{6}$,0.0,eV/atom,
Fe$_{3}$PWC$_{15}$BrO$_{15}$,0.2532,eV/atom,
SrHo$_{2}$CuO$_{5}$,0.0,eV/atom,
Np$_{5}$Ge$_{3}$,0.0,eV/atom,
SmMg$_{2}$,0.0,eV/atom,
PuCo$_{3}$,0.001200000000000756,eV/atom,
Ti$_{2}$(SO$_{4}$)$_{3}$,0.0,eV/atom,
CdSb$_{6}$(S$_{2}$I)$_{4}$,1.5565000000000002,eV/atom,
Ni$_{8}$Ge$_{2}$B$_{3}$,0.0,eV/atom,
La$_{3}$Tl,0.0,eV/atom,
LiBO$_{2}$,7.2810999999999995,eV/atom,
Rb$_{2}$Mo$_{2}$H$_{4}$C$_{4}$O$_{15}$,2.7138,eV/atom,
HoZnSn$_{2}$,0.0,eV/atom,
PC$_{2}$S$_{2}$N$_{3}$,3.2771,eV/atom,
V$_{2}$Ni$_{3}$O$_{8}$,2.5707999999999998,eV/atom,
H$_{3}$Os$_{4}$C$_{12}$ClO$_{12}$,2.5768999999999997,eV/atom,
Ba$_{2}$FeO$_{4}$,0.4064000000000001,eV/atom,
NaSi$_{2}$(HO$_{2}$)$_{3}$,5.078799999999999,eV/atom,
Th$_{2}$S$_{5}$,1.7022000000000004,eV/atom,
Na$_{2}$Sn$_{2}$H$_{4}$O$_{5}$,2.3097000000000003,eV/atom,
NdSn$_{2}$P$_{10}$Cl$_{37}$O$_{12}$,3.0080999999999998,eV/atom,
Ba$_{5}$(SiN$_{3}$)$_{2}$,1.4009,eV/atom,
Ba$_{2}$SiSe$_{4}$,2.2776,eV/atom,
MnAs$_{2}$S$_{2}$(OF$_{3}$)$_{4}$,3.0244,eV/atom,
Li$_{2}$TeO$_{3}$,3.9576,eV/atom,
ZnSiO$_{3}$,3.5902,eV/atom,
BaCr$_{4}$S$_{7}$,0.11960000000000015,eV/atom,
Na$_{5}$P$_{3}$H$_{48}$C$_{4}$N(O$_{9}$F)$_{3}$,4.4658,eV/atom,
K$_{2}$Ni$_{3}$S$_{4}$,0.7067999999999999,eV/atom,
Er$_{3}$CoSi$_{3}$,0.0,eV/atom,
Yb(FeP$_{3}$)$_{4}$,0.0,eV/atom,
Ta$_{4}$FeP,0.0,eV/atom,
Co$_{3}$(PO$_{4}$)$_{2}$,2.4802,eV/atom,
VRe$_{2}$O$_{9}$,1.8809,eV/atom,
CsTbCdTe$_{3}$,1.5451000000000001,eV/atom,
SrZrO$_{3}$,3.2114000000000003,eV/atom,
Tm$_{2}$Ga$_{10}$Os$_{3}$,0.0,eV/atom,
CaMg$_{3}$Si$_{3}$O$_{10}$,3.4088000000000003,eV/atom,
Ta$_{9}$(FeS$_{3}$)$_{2}$,0.0,eV/atom,
GdSF,1.0983999999999998,eV/atom,
CaAl$_{2}$H$_{16}$N$_{9}$,1.1488,eV/atom,
Sm$_{4}$Sb$_{3}$,0.0,eV/atom,
Ho(NiP)$_{2}$,0.0,eV/atom,
LiMgSbPd,0.0,eV/atom,
CaMoO,0.0,eV/atom,
TlInSe$_{2}$,0.7351000000000001,eV/atom,
NpSb,0.0,eV/atom,
La$_{13}$Cd$_{58}$,0.0,eV/atom,
DySe$_{2}$,0.0,eV/atom,
Sn(Br$_{3}$N)$_{2}$,0.0,eV/atom,
CdGe(BiO$_{3}$)$_{2}$,1.8998000000000004,eV/atom,
Na$_{6}$Be$_{8}$O$_{11}$,3.6365,eV/atom,
Sc$_{2}$CoSi$_{2}$,0.0,eV/atom,
MnH$_{12}$C$_{2}$(NCl$_{2}$)$_{2}$,1.6563,eV/atom,
Zr$_{5}$Te$_{4}$,0.0,eV/atom,
Na$_{5}$LiN$_{2}$,0.8422999999999998,eV/atom,