formula,Property band_gap,Property band_gap units,Property SMILES
K$_{3}$Mo$_{2}$Br$_{9}$,0.9673,eV/atom,
Ba$_{3}$LiRu$_{2}$O$_{9}$,0.07799999999999985,eV/atom,
K$_{2}$Ga$_{2}$As$_{3}$,1.0329000000000002,eV/atom,
Sr$_{4}$Mn$_{3}$(ClO$_{4}$)$_{2}$,0,eV/atom,
Sn$_{14}$Sb$_{11}$Pt$_{8}$,0.0,eV/atom,
K$_{2}$Ge$_{2}$S$_{5}$,2.3159,eV/atom,
Ta$_{5}$GeB$_{2}$,0.0,eV/atom,
BW$_{2}$,0.0,eV/atom,
Gd$_{2}$Ru$_{2}$O$_{7}$,0.0,eV/atom,
Cs$_{2}$LiCr(CN)$_{6}$,1.8319999999999999,eV/atom,
KGa(PO$_{3}$)$_{4}$,4.5523,eV/atom,
Lu$_{7}$Te,0.0,eV/atom,
Na$_{3}$NpO$_{10}$,0.03999999999999998,eV/atom,
LaNi$_{5}$As$_{3}$,0.0,eV/atom,
Sr(GeRh)$_{2}$,0,eV/atom,
Y(AlSi)$_{2}$,0.0,eV/atom,
Cs$_{10}$Si$_{7}$O$_{9}$,1.3593000000000002,eV/atom,
H$_{6}$CN$_{2}$O$_{3}$,3.3317,eV/atom,
Li$_{3}$H$_{6}$Rh,2.4252,eV/atom,
MnH$_{4}$S$_{2}$O$_{9}$,4.796,eV/atom,
Cs$_{3}$NaLi$_{2}$(BO$_{3}$)$_{2}$,3.4539999999999997,eV/atom,
LiScSiO$_{4}$,4.612299999999999,eV/atom,
Te$_{6}$Cl$_{2}$O$_{11}$,2.92,eV/atom,
CdN$_{6}$,2.7759,eV/atom,
InSn$_{2}$I$_{5}$,1.4292000000000002,eV/atom,
Na$_{2}$UP$_{2}$O$_{9}$,2.1752000000000002,eV/atom,
Sr$_{6}$Co$_{4}$Bi$_{2}$O$_{15}$,0.0,eV/atom,
KAlO$_{2}$,3.9993999999999996,eV/atom,
CrH$_{9}$(BrN)$_{3}$,1.5586,eV/atom,
DyAsPt,0.0,eV/atom,
Pr$_{5}$C$_{2}$Cl$_{9}$,1.6350000000000002,eV/atom,
KSmTe$_{2}$,1.2623000000000002,eV/atom,
Cs$_{3}$SiF$_{7}$,5.633800000000001,eV/atom,
V(MoS$_{2}$)$_{2}$,0.0,eV/atom,
MnTe$_{2}$O$_{5}$,2.0429000000000004,eV/atom,
LaNiSnH,0.0,eV/atom,
Al$_{2}$NiCl$_{8}$,1.1343,eV/atom,
YCoO$_{3}$,0.0,eV/atom,
P$_{2}$O$_{3}$,3.8266,eV/atom,
HRh,0.0,eV/atom,
Pu(SiIr)$_{2}$,0.011799999999999145,eV/atom,
Ni$_{12}$P$_{5}$,0.0,eV/atom,
KGaPO$_{4}$F,4.108099999999999,eV/atom,
Sr$_{2}$CuOsO$_{6}$,0.0,eV/atom,
CdPd$_{5}$Se,0.0,eV/atom,
CaB$_{12}$(H$_{3}$O$_{2}$)$_{4}$,0.15670000000000006,eV/atom,
RbGa$_{3}$,0.14719999999999978,eV/atom,
FeH$_{9}$C$_{3}$N$_{7}$O$_{2}$,3.2024,eV/atom,
Eu(AsRh)$_{2}$,0.0,eV/atom,
NiSnRh$_{2}$,0.0,eV/atom,
K$_{3}$Nb$_{8}$O$_{21}$,0.0,eV/atom,
GdCuS$_{2}$,0.9901,eV/atom,
Mn$_{2}$NbP$_{12}$,0.0,eV/atom,
Ba$_{2}$Co$_{4}$ClO$_{7}$,0.0,eV/atom,
ThBrN,2.6393,eV/atom,
CdInBr$_{3}$,2.2185,eV/atom,
GePdS$_{3}$,1.3072,eV/atom,
LaAgGe,0.0,eV/atom,
MgP$_{2}$H$_{20}$C$_{4}$(N$_{2}$O$_{3}$)$_{4}$,5.1417,eV/atom,
RbGeSbO$_{5}$,2.4629,eV/atom,
KAuN$_{12}$,1.4531,eV/atom,
Li$_{7}$SbO$_{6}$,3.4971999999999994,eV/atom,
Ti$_{2}$C,0.0,eV/atom,
CuHOF,0.0,eV/atom,
Th$_{7}$Os$_{3}$,0.0,eV/atom,
LiH$_{6}$ClO$_{7}$,5.2939,eV/atom,
LaIn$_{2}$Pd,0.0,eV/atom,
Y$_{5}$Mg$_{13}$Cu$_{5}$,0.0,eV/atom,
Al$_{4}$W,0.027000000000000135,eV/atom,
YbPrS$_{3}$,0.0,eV/atom,
Na$_{2}$Cu$_{3}$(SiO$_{3}$)$_{4}$,0.47529999999999983,eV/atom,
CsMgI$_{3}$,3.3159,eV/atom,
N$_{2}$,3.9593999999999996,eV/atom,[N]
ReClO$_{3}$,3.5777,eV/atom,
Sr$_{2}$Mn$_{3}$(AsO)$_{2}$,0,eV/atom,
AsS$_{4}$N$_{5}$F$_{6}$,2.4391,eV/atom,
Er$_{2}$CoGe$_{2}$,0.0,eV/atom,
CsAlH$_{24}$(SeO$_{10}$)$_{2}$,4.2024,eV/atom,[Al+3].[Cs+].O=[Se](=O)([O-])[O-].O=[Se](=O)([O-])[O-].O.O.O.O.O.O.O.O.O.O.O.O
Na$_{5}$Co$_{2}$S$_{5}$,0.0,eV/atom,
Ru(OF$_{3}$)$_{2}$,0.0,eV/atom,
Y$_{4}$RuI$_{5}$,0.12439999999999962,eV/atom,
CsSmCdSe$_{3}$,2.0217,eV/atom,
YAu$_{3}$,0.0,eV/atom,
Rb$_{3}$Cu$_{2}$Cl$_{7}$,0.16620000000000001,eV/atom,
HgCN$_{2}$,1.8713999999999997,eV/atom,
GdCuSe$_{2}$ClO$_{6}$,0.6263000000000001,eV/atom,
CsUNbO$_{6}$,2.1254,eV/atom,
NbGeAs,0.0,eV/atom,
Ga$_{3}$Ni$_{13}$Ge$_{6}$,0.00509999999999966,eV/atom,
AlAsO$_{4}$,3.865,eV/atom,
Er$_{2}$Mg$_{2}$Ru,0.0,eV/atom,
InNi$_{2}$,0.0,eV/atom,
YbPdPb,0.0,eV/atom,
YbSi,0,eV/atom,
UMn$_{5}$P$_{3}$,0.0,eV/atom,
Zr$_{9}$Ni$_{11}$,0.0,eV/atom,
HfP$_{2}$H$_{4}$O$_{9}$,5.4204,eV/atom,
Na$_{3}$V(SO$_{4}$)$_{3}$,0.0,eV/atom,
TaGaNi$_{2}$,0.0,eV/atom,
NaGeSbO$_{5}$,1.9731000000000005,eV/atom,
CeScSi,0.0,eV/atom,
In$_{6}$Ga$_{2}$PtO$_{8}$,0.5671999999999997,eV/atom,
K$_{3}$CrO$_{8}$,1.7840999999999998,eV/atom,
NaNiF$_{3}$,5.0068,eV/atom,
K$_{3}$NbHOF$_{7}$,4.1033,eV/atom,
Ti$_{4}$H$_{5}$,0.0,eV/atom,
V$_{2}$P$_{2}$O$_{9}$,1.6511000000000002,eV/atom,
ZnP$_{2}$H$_{11}$C$_{2}$NO$_{8}$,4.4996,eV/atom,
TcO$_{3}$F,2.4444999999999997,eV/atom,
Fe$_{2}$(TeO$_{3}$)$_{3}$,1.8539000000000003,eV/atom,
InAgO$_{2}$,0.21189999999999998,eV/atom,
Sc$_{4}$C$_{3}$,0.32699999999999996,eV/atom,
Fe$_{3}$O$_{4}$,0.5393000000000003,eV/atom,
Sm$_{6}$Si$_{4}$S$_{17}$,2.4769999999999994,eV/atom,
La$_{3}$NiBr$_{3}$,0.0,eV/atom,
DyCoSi$_{2}$,0.0,eV/atom,
Li$_{2}$CaGeO$_{4}$,4.1135,eV/atom,
K$_{3}$Hg$_{11}$,0.0,eV/atom,
SbO$_{2}$,0.42160000000000064,eV/atom,
UTi$_{2}$O$_{6}$,0.0,eV/atom,
NdF$_{3}$,5.450200000000001,eV/atom,
NaSiAu$_{3}$,0.0,eV/atom,
Rb$_{2}$Sn$_{2}$O$_{3}$,1.2253000000000003,eV/atom,
K$_{2}$MgH$_{8}$(CO$_{5}$)$_{2}$,4.7126,eV/atom,
Al$_{6}$Fe,0.0,eV/atom,
Zr$_{3}$Al$_{3}$C$_{5}$,0.0,eV/atom,
Sr$_{7}$Mn$_{4}$O$_{15}$,1.3692000000000002,eV/atom,
BaH$_{6}$F$_{8}$,7.5667,eV/atom,
SrHClO,4.9798,eV/atom,
NaLi$_{2}$B(PO$_{4}$)$_{2}$,5.8332999999999995,eV/atom,
BiBPbO$_{4}$,2.8760000000000003,eV/atom,
KIn(GeO$_{3}$)$_{2}$,2.3073,eV/atom,
LaSbMo$_{2}$O$_{9}$,3.2772999999999994,eV/atom,
Cu$_{3}$SbS$_{4}$,0.03559999999999963,eV/atom,
SrSiO$_{3}$,4.3766,eV/atom,
SiO$_{2}$,5.6144,eV/atom,
Na$_{3}$ErCl$_{6}$,5.2280999999999995,eV/atom,
MnBr$_{2}$,1.5333999999999999,eV/atom,
TbCuGe,0.0,eV/atom,
LiAsO$_{3}$,2.9408,eV/atom,
Nb$_{2}$CS,0.0,eV/atom,
Na$_{3}$SbSe$_{4}$,0.9766000000000001,eV/atom,
HfGaCu,0.0,eV/atom,
SmMgPd,0.0,eV/atom,
Sm(Al$_{2}$Cu)$_{4}$,0.0,eV/atom,
UFe$_{5}$Sn,0.0,eV/atom,
Ho$_{3}$(CuGe)$_{4}$,0.0,eV/atom,
RhPb,0.0,eV/atom,
Ca(H$_{2}$N)$_{2}$,2.6985,eV/atom,
BaCu$_{2}$SnS$_{4}$,0.3868999999999998,eV/atom,
Cd$_{4}$As$_{2}$I$_{3}$,1.1726,eV/atom,
Co(PdSe)$_{2}$,0.0,eV/atom,
NpO,0.0,eV/atom,
YAgPb,0.0,eV/atom,
CsTcNClO$_{4}$,2.287,eV/atom,
K$_{3}$Cr(CN)$_{6}$,1.8504,eV/atom,
Sr$_{4}$Sn$_{2}$Se$_{9}$,0.7298,eV/atom,
Na$_{2}$Mn$_{2}$Si$_{2}$O$_{7}$,2.3448,eV/atom,
CeInAu$_{2}$,0.0,eV/atom,
H$_{2}$O,5.468999999999999,eV/atom,
RbAuCl$_{4}$,1.9209999999999998,eV/atom,
CeSi$_{2}$Mo$_{2}$C,0.0,eV/atom,
SrCaSn,0.2909999999999999,eV/atom,
VBP$_{2}$H$_{5}$NO$_{9}$,2.1097,eV/atom,
GdNi$_{3}$,0.0,eV/atom,
Pr(BRu)$_{2}$,0.0,eV/atom,
Al$_{2}$PdCl$_{8}$,1.5737,eV/atom,
NpIr$_{2}$,0.0,eV/atom,
Dy$_{2}$NiSn$_{6}$,0.0,eV/atom,
DySi,0.0,eV/atom,
BaH$_{2}$O$_{3}$,0.0,eV/atom,
Na$_{2}$Pd(NO$_{3}$)$_{4}$,1.7034,eV/atom,
U$_{3}$Si$_{2}$C$_{3}$,0.0011999999999989797,eV/atom,
Ca$_{3}$Be$_{2}$P$_{4}$(HO$_{2}$)$_{10}$,5.319100000000001,eV/atom,
Tm(FeSn)$_{6}$,0.0,eV/atom,
LiBH$_{4}$,6.685499999999999,eV/atom,
CoSnRh$_{2}$,0.0,eV/atom,
C,4.3668,eV/atom,[C]
La$_{3}$LuSe$_{6}$,0.7419000000000002,eV/atom,
K$_{2}$CoH$_{8}$(CO$_{5}$)$_{2}$,3.0343,eV/atom,
Ba$_{4}$Al$_{3}$Cu$_{2}$F$_{21}$,0.6525000000000001,eV/atom,
Sr$_{2}$TbReO$_{6}$,0.0,eV/atom,
NpNiSn,0.0,eV/atom,
Tl$_{2}$B$_{2}$Se$_{7}$,1.2811,eV/atom,
SiO$_{2}$,5.4481,eV/atom,
Cr$_{5}$B$_{3}$,0.0,eV/atom,
KVCdO$_{4}$,3.0905,eV/atom,
Cs$_{2}$Co(PO$_{3}$)$_{4}$,3.1859,eV/atom,
NiH$_{16}$C$_{2}$S$_{3}$N$_{6}$O$_{7}$,2.0362999999999998,eV/atom,
Ca$_{19}$(Mg$_{4}$H$_{27}$)$_{2}$,2.7886,eV/atom,
KPrS$_{2}$,2.2658,eV/atom,
ZrTl$_{2}$S$_{3}$,1.1677999999999997,eV/atom,
NdAl$_{2}$,0.0,eV/atom,
Sr$_{3}$P$_{4}$O$_{13}$,5.2118,eV/atom,
Tc$_{2}$As$_{3}$,0.0,eV/atom,
ErIr$_{2}$,0.0,eV/atom,
V$_{2}$NiS$_{4}$,0.0,eV/atom,
Np$_{3}$Si$_{2}$,0.0,eV/atom,
ZnS,2.0423999999999998,eV/atom,
Pr$_{6}$IrCl$_{11}$,0.6391,eV/atom,
BaP$_{3}$Pt$_{2}$,0.12739999999999974,eV/atom,
Sc$_{2}$Si$_{2}$Pt$_{3}$,0.0,eV/atom,
CdB$_{2}$XeF$_{10}$,2.8814,eV/atom,
KEr(PO$_{3}$)$_{4}$,5.4862,eV/atom,
ErB$_{2}$,0.0,eV/atom,
Cd$_{5}$Mo$_{2}$(P$_{2}$O$_{7}$)$_{4}$,2.5954,eV/atom,
Mg$_{2}$Mo$_{3}$O$_{8}$,1.6410000000000005,eV/atom,
K$_{2}$Co(PO$_{3}$)$_{4}$,3.1734,eV/atom,
NpPt,0.0,eV/atom,
AsSe$_{6}$IF$_{6}$,1.5603,eV/atom,
Pr$_{4}$Ge$_{7}$,0.0,eV/atom,
DyCrO$_{3}$,2.4922,eV/atom,
SrZr$_{4}$(PO$_{4}$)$_{6}$,4.3718,eV/atom,
MgIr,0.0,eV/atom,
SmTl(MoO$_{4}$)$_{2}$,3.5068,eV/atom,
LuRh,0.0,eV/atom,
CsAuCl$_{4}$,1.8317999999999999,eV/atom,
Zr$_{2}$Au,0.0,eV/atom,
Cs$_{2}$NaFe(CN)$_{6}$,0.0,eV/atom,
NaZn$_{4}$H$_{18}$SClO$_{16}$,3.2778,eV/atom,
LiSbS$_{2}$,1.1843000000000004,eV/atom,
Ba$_{2}$H$_{3}$I,2.24,eV/atom,
CaAl$_{2}$SiO$_{6}$,4.4797,eV/atom,
Sm$_{2}$Pd$_{2}$Pb,0.0,eV/atom,
Al(PO$_{3}$)$_{3}$,5.8176,eV/atom,
MnTlCl$_{3}$,1.1483999999999996,eV/atom,
Y$_{5}$GaCo$_{5}$,0.0,eV/atom,
Ba$_{5}$Ge$_{3}$,0.0,eV/atom,
BaZnAs$_{2}$O$_{7}$,2.8585,eV/atom,
NClO$_{2}$,0.9419,eV/atom,
Hf$_{2}$Ga,0.0,eV/atom,
YBi$_{2}$IO$_{4}$,1.3836000000000004,eV/atom,
Nd$_{2}$TiO$_{5}$,3.3137999999999996,eV/atom,
CsN$_{3}$,4.2196,eV/atom,
LaMg$_{3}$,0.0,eV/atom,
Rb$_{2}$Na$_{2}$IrO$_{4}$,0.0,eV/atom,
HoClO,5.1804,eV/atom,
HoCuPbSe$_{3}$,1.1874000000000002,eV/atom,
Ta$_{2}$Te$_{3}$,0.0,eV/atom,
HoGeRh,0.0,eV/atom,
CaAl$_{2}$Si(HO$_{2}$)$_{4}$,4.690799999999999,eV/atom,
BaTa$_{2}$O$_{6}$,2.061,eV/atom,
U(MnAl$_{2}$)$_{4}$,0.0,eV/atom,
RbSbBrF$_{3}$,3.7542,eV/atom,
Na$_{4}$UC$_{3}$O$_{11}$,2.1348000000000003,eV/atom,
Y$_{4}$(CoB$_{2}$)$_{3}$,0.0,eV/atom,
Er$_{2}$SiRh$_{3}$,0.0,eV/atom,
Nd$_{3}$BWO$_{9}$,3.8023999999999996,eV/atom,
NaAlSiO$_{4}$,2.7337000000000002,eV/atom,
GdPt$_{2}$,0.019000000000000128,eV/atom,
Ba$_{2}$CoWO$_{6}$,0.0,eV/atom,
Gd(CrSi)$_{2}$,0.0,eV/atom,
MoSCl$_{7}$O,1.8305,eV/atom,
UI$_{4}$,0.26759999999999984,eV/atom,
Ba$_{5}$B$_{3}$CNO$_{9}$,3.3351,eV/atom,
KPSe$_{3}$,1.3151,eV/atom,
Sc(Al$_{2}$Fe)$_{4}$,0.0,eV/atom,
Zr$_{5}$Sb$_{3}$Se,0.0,eV/atom,
LaPd$_{5}$,0.0,eV/atom,
Y$_{3}$Si$_{2}$Cl$_{5}$O$_{6}$,4.5564,eV/atom,
Ge$_{4}$Rh,0.0,eV/atom,
Na$_{3}$BP$_{2}$,1.8441999999999998,eV/atom,
LaAl$_{2}$Ag$_{3}$,0.0,eV/atom,
ZnMoO$_{4}$,3.5481000000000003,eV/atom,
AsS$_{6}$N$_{5}$F$_{6}$,1.7912,eV/atom,
Gd(SiIr)$_{2}$,0.0,eV/atom,
Nd$_{3}$Ga$_{10}$Ni,0.0,eV/atom,
Cu$_{3}$(AsO$_{4}$)$_{2}$,0.0,eV/atom,
H$_{2}$CO$_{2}$,4.8418,eV/atom,O=CO
Na$_{3}$SiH$_{5}$O$_{6}$,3.8850999999999996,eV/atom,
Li$_{4}$CO$_{4}$,3.8023,eV/atom,
Ba$_{2}$LuBiO$_{6}$,1.4445000000000001,eV/atom,
Zn(AgI$_{2}$)$_{2}$,2.0538,eV/atom,
Bi(BO$_{2}$)$_{3}$,3.8529,eV/atom,
Ba$_{2}$GdB$_{2}$ClO$_{6}$,3.1318,eV/atom,
Ba$_{5}$(GaS$_{4}$)$_{2}$,2.5327,eV/atom,[Ba+2].[Ba+2].[O-]C(=S)C1=CC(O)=C(O)C(O)=C1.[O-]C(=S)C1=CC(O)=C(O)C(O)=C1.[O-]C(=S)C1=CC(O)=C(O)C(O)=C1.[O-]C(=S)C1=CC(O)=C(O)C(O)=C1
SrMg,0.0,eV/atom,
AlFePO$_{5}$,3.5128,eV/atom,
ErInCu$_{2}$,0.0,eV/atom,
Sr$_{3}$Sc(BO$_{3}$)$_{3}$,4.6354999999999995,eV/atom,
Hg(AuF$_{4}$)$_{2}$,1.5592,eV/atom,
Si$_{2}$Pd$_{9}$,0.0,eV/atom,
Ti$_{8}$S$_{3}$,0.0,eV/atom,
CrH$_{9}$C$_{6}$(S$_{2}$O)$_{3}$,2.612,eV/atom,
CO$_{2}$,6.4299,eV/atom,
TaTlSe$_{3}$,0.31020000000000003,eV/atom,
K$_{3}$UF$_{7}$,0.7939999999999996,eV/atom,
Na$_{2}$ZnCl$_{4}$,4.5763,eV/atom,
Pr$_{5}$(Mo$_{16}$O$_{27}$)$_{2}$,0.038599999999999746,eV/atom,
Th(SiPt)$_{2}$,0.0,eV/atom,
La(ErS$_{2}$)$_{3}$,1.0587,eV/atom,
CeCoSi,0.0,eV/atom,
KBaFeO$_{3}$,2.3578,eV/atom,
BaAlH$_{5}$,2.7537,eV/atom,
K$_{3}$NaP$_{4}$(H$_{2}$O$_{7}$)$_{2}$,4.540500000000001,eV/atom,
CsH$_{3}$O$_{2}$,4.7128,eV/atom,
TiSi$_{2}$,0.0,eV/atom,
Er$_{2}$Pd$_{2}$Pb,0.0,eV/atom,
CeBiPt,0.0,eV/atom,
KInTe$_{2}$,0.9868999999999999,eV/atom,
Ba$_{4}$TiP$_{4}$,1.0679000000000003,eV/atom,
RbSO$_{2}$F,4.0947,eV/atom,
ErNiSn,0.0,eV/atom,
H$_{10}$C$_{3}$IN,4.3149,eV/atom,[I-].C[NH+](C)C
Li$_{2}$H$_{2}$Pt,0.0,eV/atom,
N$_{2}$,0.0,eV/atom,[H]N([H])[H]
TmCuSb$_{2}$,0.0,eV/atom,
K(NiSe)$_{2}$,0.0,eV/atom,
Zn$_{2}$B$_{2}$PbO$_{6}$,3.3261999999999996,eV/atom,
BaNi$_{2}$(PO$_{4}$)$_{2}$,3.7407,eV/atom,
RbCa$_{2}$Ta$_{3}$O$_{10}$,2.2015,eV/atom,
PrAu$_{6}$,0.0,eV/atom,
Cs$_{2}$CdBi$_{2}$S$_{5}$,1.9339,eV/atom,
SiO$_{2}$,5.5882,eV/atom,
DySi$_{3}$Rh$_{5}$,0.0,eV/atom,
Sr$_{2}$TaCrO$_{6}$,2.7536000000000005,eV/atom,
SrSb$_{2}$,0.0,eV/atom,
Nd$_{3}$Ga,0.0,eV/atom,
Rb$_{2}$Si$_{2}$O$_{5}$,4.0396,eV/atom,
Sr(ZnSb)$_{2}$,0.0,eV/atom,
Rb$_{3}$Nd$_{2}$(NO$_{3}$)$_{9}$,3.4486,eV/atom,