formula,Property band_gap,Property band_gap units,Property SMILES
V$_{2}$(PO$_{4}$)$_{3}$,0.0,eV/atom,
Co(PO$_{3}$)$_{2}$,2.9753000000000007,eV/atom,
ZnGeAs$_{2}$,0.0118999999999998,eV/atom,
K$_{4}$Mn(MoO$_{4}$)$_{3}$,3.0225000000000004,eV/atom,
NaSrB$_{5}$O$_{9}$,5.2309,eV/atom,
BaGa$_{2}$(GeO$_{4}$)$_{2}$,3.4836,eV/atom,
KBi,0.4058999999999999,eV/atom,
Co$_{2}$B$_{4}$Mo,0.0,eV/atom,
Pd(NCl$_{3}$)$_{2}$,0.0,eV/atom,
CsPrCdTe$_{3}$,1.7913000000000001,eV/atom,
Bi$_{2}$Ir,0.0,eV/atom,
CIClF$_{4}$,2.6833,eV/atom,FI(Cl)C(F)(F)F
MgH$_{10}$C$_{4}$(N$_{2}$O$_{3}$)$_{2}$,4.785,eV/atom,
ZnInH$_{14}$O$_{7}$F$_{5}$,4.1099,eV/atom,[F-].[F-].[F-].[F-].[F-].[Zn+2].[In+3].O.O.O.O.O.O.O
V$_{2}$O$_{5}$,2.3329,eV/atom,
BaLu$_{2}$CuO$_{5}$,0.0,eV/atom,
NdH$_{12}$C$_{2}$N$_{7}$O$_{13}$,3.3087,eV/atom,
Tl$_{3}$AsS$_{3}$,1.2156000000000002,eV/atom,
In$_{2}$(SO$_{4}$)$_{3}$,3.6946000000000003,eV/atom,
Sr$_{3}$(AlGe)$_{2}$,0.043099999999999916,eV/atom,
U$_{3}$Sb$_{4}$Ir$_{3}$,0.0,eV/atom,
EuInNi$_{5}$,0.0,eV/atom,
KNaCu$_{3}$S$_{3}$O$_{13}$,0.07350000000000012,eV/atom,
KTiP$_{2}$O$_{7}$,0.13399999999999945,eV/atom,
Pr$_{3}$SnC,0.0,eV/atom,
HfRh,0.0,eV/atom,
HoPS$_{4}$,2.1506999999999996,eV/atom,
CdI$_{2}$,2.3339,eV/atom,
Ca(CoSi)$_{2}$,0.0,eV/atom,
Ba(GeRh)$_{2}$,0.0,eV/atom,
Ho$_{4}$(B$_{2}$O$_{5}$)$_{3}$,5.5299,eV/atom,
K$_{2}$Mg(H$_{2}$N)$_{4}$,2.2680000000000002,eV/atom,
KAl$_{2}$NiP$_{3}$(H$_{2}$O$_{7}$)$_{2}$,4.5312,eV/atom,
DyP$_{5}$,0.09049999999999958,eV/atom,
CaGa$_{2}$Ni,0.0,eV/atom,
B$_{2}$O$_{3}$,6.3017,eV/atom,
Tl$_{2}$CuH$_{12}$(SO$_{7}$)$_{2}$,0.7928999999999999,eV/atom,
Ca$_{5}$P$_{12}$Ir$_{19}$,0.0,eV/atom,
TiAl$_{3}$,0.0,eV/atom,
CoSn$_{2}$,0.0,eV/atom,
RbVF$_{3}$,2.4491,eV/atom,
UVAgO$_{6}$,1.6036,eV/atom,
CeBPt$_{4}$,0.0,eV/atom,
Ca$_{2}$As$_{2}$O$_{7}$,3.3160000000000003,eV/atom,
RuN,0.0,eV/atom,
Ca$_{5}$Au$_{3}$,0.0,eV/atom,
Nd$_{2}$(Zn$_{2}$Ge)$_{3}$,0.0,eV/atom,
AlPO$_{4}$,5.388999999999999,eV/atom,
La$_{2}$Ti$_{2}$SiO$_{9}$,2.6201,eV/atom,
Ba$_{4}$GeAs$_{4}$,0.8233999999999999,eV/atom,
MnV$_{2}$O$_{4}$,1.4876,eV/atom,
Pr(CoB)$_{4}$,0.0,eV/atom,
Na$_{2}$ZnSiO$_{4}$,3.1365,eV/atom,
LaSb$_{2}$Au,0.0,eV/atom,
SrAl$_{2}$SiN$_{2}$O$_{3}$,3.7236,eV/atom,
Mn$_{3}$NiN,0.0,eV/atom,
MgH$_{18}$C$_{4}$SN$_{8}$O$_{9}$,5.1563,eV/atom,
Sr$_{2}$GdCu$_{3}$(PbO$_{4}$)$_{2}$,0.0,eV/atom,
As$_{2}$HPbF$_{13}$,4.5547,eV/atom,
CuHgSeBr,0.4629000000000001,eV/atom,
Zn$_{2}$SiO$_{4}$,2.6857,eV/atom,
NaLuS$_{2}$,2.3992999999999998,eV/atom,
CaCuSn,0.0,eV/atom,
K$_{2}$TaCl$_{6}$,0.0,eV/atom,
LuSnPt,0.0,eV/atom,
Tl(IO$_{3}$)$_{3}$,2.1722,eV/atom,
CsPH$_{3}$O$_{4}$F,5.6175,eV/atom,
Ca$_{3}$PbN,0.0,eV/atom,
Zn$_{8}$Ag$_{5}$,0.0,eV/atom,
SmGaPd,0.0,eV/atom,
PrFeSi,0.0,eV/atom,
Ga(BiCl)$_{4}$,1.4226999999999999,eV/atom,
LuPd,0.0,eV/atom,
MnVBiO$_{5}$,2.0765,eV/atom,
La$_{10}$S$_{14}$O,1.9410999999999996,eV/atom,
Th(MoO$_{4}$)$_{2}$,3.5980999999999996,eV/atom,
CuH$_{8}$C$_{4}$N$_{8}$(ClO)$_{2}$,0.0,eV/atom,
MnTlCl$_{3}$,1.2884000000000002,eV/atom,
ScRu$_{3}$C,0,eV/atom,
MnSiIr,0.0,eV/atom,
Ag$_{2}$IO$_{6}$,0.0,eV/atom,
CaH$_{12}$CO$_{9}$,4.8957999999999995,eV/atom,
CuBr,0.2019000000000002,eV/atom,
V(FeSe$_{2}$)$_{2}$,0.0,eV/atom,
Nd$_{5}$Ge$_{4}$,0.0,eV/atom,
Mn$_{2}$CuO$_{4}$,0.0,eV/atom,
La(BRu)$_{4}$,0.0,eV/atom,
CsNiCl$_{3}$,0.8181999999999998,eV/atom,
Na(BH)$_{5}$,4.7322,eV/atom,
RbH$_{6}$C$_{2}$S$_{2}$NO$_{4}$,5.1913,eV/atom,[Rb+].O=S(=O)([N-]S(=O)(=O)C)C
I,0.0,eV/atom,
K$_{2}$Mo(I$_{2}$O$_{7}$)$_{2}$,3.0251,eV/atom,
ZrTiAs,0.0,eV/atom,
PrB$_{2}$Ru$_{3}$,0.0,eV/atom,
KZrF$_{5}$,5.5642,eV/atom,
ZnSiO$_{3}$,3.3367999999999993,eV/atom,
CdHg$_{4}$(AsI$_{2}$)$_{2}$,0.4599000000000001,eV/atom,
SrSn(BO$_{3}$)$_{2}$,3.6113,eV/atom,
CeGe$_{3}$Pd$_{5}$,0.0,eV/atom,
Dy$_{3}$S$_{2}$Cl$_{5}$,3.2556000000000003,eV/atom,
EuTiAgO$_{4}$,0.0242,eV/atom,
Zr$_{3}$Co,0.0,eV/atom,
SrIn$_{4}$Pd,0.0,eV/atom,
Na,0.0,eV/atom,
Dy$_{3}$AlC,0.0,eV/atom,
Ba$_{2}$CaMoO$_{6}$,2.258,eV/atom,
Ca$_{4}$(H$_{4}$Rh)$_{3}$,0.0,eV/atom,
Ba$_{2}$Fe$_{2}$S$_{2}$OF$_{2}$,2.0466,eV/atom,
Sm(GaS$_{2}$)$_{2}$,0.0,eV/atom,
Dy$_{5}$Si$_{3}$C,0.0,eV/atom,
RbZnSClO$_{4}$,4.5378,eV/atom,
Ti$_{2}$AlZn,0.0,eV/atom,
RbMnSe$_{2}$,0.0,eV/atom,
Sm$_{3}$Mg$_{13}$Zn$_{30}$,0.0,eV/atom,
Ca$_{2}$FeSbO$_{6}$,2.1517,eV/atom,
Ag$_{2}$W$_{2}$O$_{7}$,1.9576,eV/atom,
MgNi,0.0,eV/atom,
CsLaNb$_{2}$O$_{7}$,1.4413999999999998,eV/atom,
LaMgCu$_{2}$,0.0,eV/atom,
KMo$_{2}$P$_{3}$O$_{13}$,2.6651,eV/atom,
AgBi(PSe$_{3}$)$_{2}$,1.2778,eV/atom,
FeH$_{2}$Cl$_{5}$O$_{3}$,0.0,eV/atom,
Bi$_{2}$Pt,0.0,eV/atom,
Yb$_{8}$Ge$_{3}$Sb$_{5}$,0.0,eV/atom,
LuB$_{2}$Ir$_{3}$,0.0,eV/atom,
NdIn$_{3}$,0.0,eV/atom,
Cr$_{3}$PN,0.0,eV/atom,
Sc$_{5}$Ge$_{3}$,0.0,eV/atom,
K$_{2}$PtBr$_{6}$,1.1688,eV/atom,
TlCuPO$_{4}$,0.008199999999999985,eV/atom,
YInPt,0.0,eV/atom,
LaNiPO,0.0,eV/atom,
Na$_{4}$HgP$_{2}$,0.03649999999999998,eV/atom,
Cl$_{2}$,2.5434,eV/atom,[Cl]
Eu(GePt)$_{2}$,0.0,eV/atom,
ZrBi,0.0,eV/atom,
Tm$_{2}$Si$_{2}$O$_{7}$,4.790500000000001,eV/atom,
Rb$_{2}$MnBr$_{4}$,1.1516,eV/atom,
Re$_{3}$B,0.0,eV/atom,
Sm(SiIr)$_{2}$,0.0,eV/atom,
K$_{6}$HgS$_{4}$,1.7161,eV/atom,
NaMgBO$_{3}$,3.5852,eV/atom,
TaZn$_{2}$,0.0,eV/atom,
CsGaH$_{4}$,4.7997,eV/atom,
K$_{4}$Au$_{6}$S$_{5}$,1.5841999999999998,eV/atom,
ZrSb,0.0,eV/atom,
Zr$_{5}$(In$_{2}$Rh)$_{2}$,0.0,eV/atom,
KNa$_{2}$Y(Si$_{2}$O$_{5}$)$_{3}$,4.8143,eV/atom,
Be$_{12}$Cr,0.0,eV/atom,
Eu(TmSe$_{2}$)$_{2}$,0.3281999999999998,eV/atom,
Hg$_{3}$TeO$_{6}$,1.1609,eV/atom,
Cr$_{3}$AsC,0.0,eV/atom,
CoSn$_{3}$,0.0,eV/atom,
SiNi$_{2}$P,0.0,eV/atom,
K$_{2}$RuNCl$_{5}$O,1.7987999999999997,eV/atom,
LiCrO$_{2}$,2.9997999999999996,eV/atom,
CeNbO$_{4}$,0.0,eV/atom,
HfAlAu$_{2}$,0.0,eV/atom,
CsFe$_{2}$F$_{6}$,0.0,eV/atom,
Sn$_{4}$OF$_{6}$,3.2029,eV/atom,
CaB$_{5}$H$_{3}$O$_{10}$,5.1418,eV/atom,
Li(PrGe$_{3}$)$_{2}$,0.0,eV/atom,
H$_{7}$O$_{4}$,0.0,eV/atom,
BaSe$_{2}$,0.5995000000000001,eV/atom,
U$_{4}$Ga$_{12}$Fe,0.0,eV/atom,
Cs$_{3}$Y(PO$_{4}$)$_{2}$,4.4731000000000005,eV/atom,
PrCuGe$_{2}$,0.0,eV/atom,
K$_{2}$NaVF$_{6}$,0.0,eV/atom,
RbGaBP$_{2}$HO$_{9}$,4.662599999999999,eV/atom,
CrAgS$_{2}$,0.7286999999999999,eV/atom,
ScCoP,0.0,eV/atom,
Pd$_{2}$Cl$_{2}$O,0.6905999999999999,eV/atom,
Cs$_{2}$TlFeF$_{6}$,2.8622,eV/atom,
Zn(CrS$_{2}$)$_{2}$,0.0,eV/atom,
Tb$_{2}$Si$_{5}$Os$_{3}$,0.0,eV/atom,
Er$_{2}$Ni$_{17}$,0.0,eV/atom,
PI$_{2}$,1.9266999999999999,eV/atom,
EuI$_{2}$,1.4550999999999998,eV/atom,
FeO,0,eV/atom,
LiB$_{2}$H$_{3}$O$_{5}$,4.8897,eV/atom,
Cr$_{2}$B$_{3}$,0.0,eV/atom,
Mg(BeAs)$_{2}$,0.4079999999999995,eV/atom,
La$_{4}$Pb$_{3}$,0.0,eV/atom,
CaGa$_{4}$,0.0,eV/atom,
MnAsRh,0.0,eV/atom,
CN$_{2}$,1.198500000000001,eV/atom,
Cr$_{5}$InSe$_{8}$,0.0,eV/atom,
CsNdS$_{2}$,2.1496,eV/atom,
RbH$_{5}$C$_{7}$SO$_{5}$,3.7907,eV/atom,[Rb+].O=C([O-])C=1C=CC=CC1S(=O)(=O)O
Sr$_{4}$SO$_{3}$,2.6687000000000003,eV/atom,
Cd$_{2}$Cu(PO$_{4}$)$_{2}$,0.6916,eV/atom,
Hf(CuP)$_{2}$,0.0,eV/atom,
Ba$_{2}$SnSe$_{3}$F$_{2}$,1.7221999999999997,eV/atom,
La$_{10}$(ErS$_{3}$)$_{9}$,0.0,eV/atom,
CoSiO$_{3}$,2.6041,eV/atom,
Sr$_{2}$SnO$_{4}$,2.7047999999999996,eV/atom,
MgNiGe,0.0,eV/atom,
S$_{4}$N$_{5}$F,2.4816,eV/atom,
TaTe$_{4}$I,0.49560000000000004,eV/atom,
Cs$_{3}$ZnI$_{4}$NO$_{3}$,3.147,eV/atom,
Yb$_{2}$O$_{3}$,0.0,eV/atom,
CrOF$_{3}$,2.1075,eV/atom,
Nd$_{2}$Cu$_{2}$O$_{5}$,0.0,eV/atom,
GeMo$_{3}$,0.02970000000000006,eV/atom,
NaSO$_{2}$,2.3189,eV/atom,
LiMnSe$_{2}$,0.0,eV/atom,
Yb$_{2}$S$_{2}$O,0.6983999999999999,eV/atom,
TmCuPb,0.0,eV/atom,
SiBr$_{4}$,4.1056,eV/atom,
CeS,0.0,eV/atom,
TeS$_{4}$(NCl)$_{4}$,1.8941,eV/atom,
TlSb$_{5}$S$_{8}$,1.5463999999999998,eV/atom,
PH$_{3}$NF$_{5}$,7.0655,eV/atom,FP(F)(F)(F)F.N
SrN,0.0,eV/atom,
Zn$_{2}$Te$_{3}$O$_{8}$,3.2903000000000002,eV/atom,
K$_{9}$Fe$_{2}$Se$_{7}$,0.3782000000000001,eV/atom,
Ti$_{3}$As,0.0,eV/atom,
Cs$_{2}$KScCl$_{6}$,4.0204,eV/atom,
LiLa$_{2}$IrO$_{6}$,0.0,eV/atom,
Ir(NCl)$_{4}$,0.4847,eV/atom,
K(CoSe)$_{2}$,0.0,eV/atom,
Ho$_{2}$Mo$_{2}$C$_{3}$,0.0,eV/atom,
KAuBr$_{4}$,0.8103,eV/atom,
Y$_{3}$GaO$_{6}$,3.6807,eV/atom,
Sm$_{3}$CuSe$_{6}$,0.7010000000000001,eV/atom,
AlTlO$_{2}$,2.1963000000000004,eV/atom,
Ce$_{2}$InCu$_{2}$,0.0,eV/atom,
SiTc,0.0,eV/atom,
ScInPt,0.0,eV/atom,
Ba(CuSe)$_{2}$,0.48629999999999995,eV/atom,
In$_{2}$NiS$_{4}$,0.0,eV/atom,
MgSiO$_{3}$,5.415499999999999,eV/atom,
POsS,0.9359999999999999,eV/atom,
Lu$_{3}$Mn$_{3}$Ga$_{2}$Si,0.0,eV/atom,
Ca$_{3}$(BO$_{3}$)$_{2}$,4.8224,eV/atom,
LiSnAu,0.0,eV/atom,
VZn$_{2}$P$_{2}$O$_{9}$,2.8577,eV/atom,
RbCuO,0.0,eV/atom,
Ba$_{3}$NiIr$_{2}$O$_{9}$,0.0,eV/atom,
NpSb$_{2}$,0.0,eV/atom,
CaMgNi$_{4}$,0.0,eV/atom,
Nd$_{23}$Cd$_{4}$Rh$_{7}$,0.0,eV/atom,
MnGaNi$_{2}$,0.0,eV/atom,
SnO,1.4074,eV/atom,
MnO$_{2}$,1.0947,eV/atom,
Ba$_{6}$Lu$_{2}$(WO$_{6}$)$_{3}$,2.9893,eV/atom,
BaCd$_{11}$,0.0,eV/atom,
Ti$_{5}$Sn$_{3}$,0.0,eV/atom,
Y$_{2}$O$_{3}$,4.083600000000001,eV/atom,
Ti$_{4}$MnBi$_{2}$,0.0,eV/atom,
UCl$_{2}$O,0.0,eV/atom,
Dy(AlSi)$_{2}$,0.0,eV/atom,
ErIn,0.0,eV/atom,
CrF$_{2}$,2.5732,eV/atom,
BeI$_{2}$,4.1400999999999994,eV/atom,
SrAlSi$_{4}$N$_{7}$,3.580400000000001,eV/atom,
SmMoO$_{4}$F,3.8163,eV/atom,
Rb$_{2}$GeF$_{6}$,5.796,eV/atom,
CdI$_{2}$,2.3729,eV/atom,
Na$_{4}$Si$_{2}$Te$_{5}$,1.8779000000000003,eV/atom,
Y(FeO$_{2}$)$_{2}$,0.0,eV/atom,
Eu(InSe$_{2}$)$_{2}$,0.011800000000000033,eV/atom,
H$_{6}$RuN$_{3}$Cl$_{3}$O,1.8942,eV/atom,
Ho$_{4}$InRh,0.0,eV/atom,
ErB$_{6}$,0.0,eV/atom,
Sn(Mo$_{2}$O$_{3}$)$_{2}$,0.018799999999999706,eV/atom,
BaH$_{4}$O$_{3}$,4.2591,eV/atom,
HoCoGe$_{2}$,0.0,eV/atom,
Cs$_{3}$Zr$_{2}$I$_{9}$,0.39559999999999995,eV/atom,
ReO$_{2}$,0.0,eV/atom,
Eu(MgH$_{3}$)$_{2}$,0.0,eV/atom,
CaMn$_{4}$(CuO$_{4}$)$_{3}$,0.0,eV/atom,
Ba$_{2}$ScSbO$_{6}$,0.0,eV/atom,
K$_{4}$In$_{2}$Si$_{8}$O$_{21}$,3.8038,eV/atom,
In$_{2}$Se,0.0,eV/atom,
NbCo$_{2}$,0.0,eV/atom,
Ba$_{3}$BiRu$_{2}$O$_{9}$,0.0,eV/atom,
KMnF$_{3}$,2.6741,eV/atom,
TiH$_{12}$C$_{2}$(NF)$_{6}$,2.8143000000000002,eV/atom,
La$_{3}$CI$_{5}$,0.2535999999999996,eV/atom,
Ba(SbS$_{2}$)$_{2}$,1.4872999999999998,eV/atom,
Hg$_{3}$(BO$_{3}$)$_{2}$,2.6125,eV/atom,
Dy$_{3}$Sc$_{2}$S$_{7}$,0.0,eV/atom,
FeO$_{2}$,0.0,eV/atom,
Ge$_{5}$Ir$_{4}$,0.12790000000000035,eV/atom,
KNb(CuS$_{2}$)$_{2}$,1.7013999999999996,eV/atom,
Na$_{2}$LiP$_{3}$H$_{8}$O$_{13}$,5.0012,eV/atom,
Ca$_{3}$CuIrO$_{6}$,0.0,eV/atom,
Cu$_{3}$As$_{4}$H$_{18}$C$_{8}$I$_{3}$(NO$_{2}$)$_{2}$,2.778,eV/atom,
NbP$_{4}$(S$_{2}$Cl)$_{5}$,1.1953,eV/atom,
Re$_{2}$C$_{3}$I$_{4}$O$_{3}$,0.4427000000000001,eV/atom,
BaCa$_{2}$C$_{2}$(O$_{3}$F)$_{2}$,4.7298,eV/atom,
Hg$_{4}$As$_{2}$I$_{3}$,0.6587000000000001,eV/atom,
AlN,4.417499999999999,eV/atom,
K$_{3}$SbSe$_{3}$,2.2931000000000004,eV/atom,
NdTaO$_{4}$,4.0262,eV/atom,
Na$_{2}$HgS$_{2}$,2.1799,eV/atom,
Li$_{3}$InO$_{3}$,2.8858000000000006,eV/atom,
TaP$_{4}$(SCl)$_{5}$,2.1765,eV/atom,
BaPr$_{2}$Ti$_{3}$O$_{10}$,1.9490000000000003,eV/atom,
K(Zr$_{3}$I$_{7}$)$_{2}$,0.0,eV/atom,
Mn$_{3}$Ga$_{4}$P$_{6}$(H$_{2}$O$_{5}$)$_{6}$,3.5464,eV/atom,
Pr$_{3}$U(ClO$_{2}$)$_{3}$,1.4230999999999998,eV/atom,
Cs$_{2}$PSe$_{5}$,1.4721000000000002,eV/atom,
La$_{4}$CdCo,0.0,eV/atom,
NaTi$_{2}$Al$_{5}$O$_{12}$,2.7190000000000003,eV/atom,
Al$_{3}$Ir,0.0,eV/atom,
V$_{3}$Sb,0.0,eV/atom,
TeI,0.7793000000000001,eV/atom,
HfGa$_{3}$,0.0,eV/atom,
Sm$_{2}$SCl$_{4}$,3.5036999999999994,eV/atom,
Tl$_{2}$GeTe$_{3}$,0.4684999999999997,eV/atom,
YMgCu,0.0,eV/atom,
Zn$_{4}$SiTePbO$_{10}$,2.2881000000000005,eV/atom,
TbAgPb,0.0,eV/atom,
CeRhC$_{2}$,0.0,eV/atom,
Hf$_{5}$Al$_{3}$N,0.0,eV/atom,
VS$_{2}$,0.0,eV/atom,
Mn$_{2}$Nb$_{9}$Ge$_{8}$,0.0,eV/atom,
Sb$_{9}$Se$_{4}$F$_{39}$,1.9538,eV/atom,
Na$_{3}$In$_{2}$Au,0.0,eV/atom,
CdP$_{2}$,1.4533,eV/atom,
Ga(IO$_{3}$)$_{3}$,3.3088,eV/atom,[Ga+3].O=I(=O)[O-].O=I(=O)[O-].O=I(=O)[O-]
CaFeAsF,0.0,eV/atom,
KB$_{3}$O$_{5}$,5.225300000000001,eV/atom,
HgTe,0.0,eV/atom,
BiBr$_{3}$,2.515,eV/atom,
CaInAu,0.0,eV/atom,
KNaMo(OF$_{2}$)$_{2}$,2.2123,eV/atom,
Na$_{2}$Zn$_{2}$O$_{3}$,1.2476000000000003,eV/atom,
PClOF$_{2}$,5.4542,eV/atom,
YSi$_{3}$Ni,0.0,eV/atom,
Y$_{3}$SbO$_{7}$,2.8011,eV/atom,
HoRh$_{2}$,0.0,eV/atom,
SrMg$_{3}$SiN$_{4}$,2.4132999999999996,eV/atom,
UTe,0.0,eV/atom,
BaUI$_{6}$,0.22419999999999995,eV/atom,
CaH$_{3}$NO$_{5}$,3.4120999999999997,eV/atom,[Ca+2].[OH-].O=[N+]([O-])[O-].O
NbCuTe$_{2}$,0.0,eV/atom,
Nd$_{3}$InN,0.0,eV/atom,
K$_{3}$Ce(PO$_{4}$)$_{2}$,0.3656000000000006,eV/atom,
Pr$_{3}$Al$_{11}$,0.0,eV/atom,
Ga$_{2}$Te$_{3}$,0.0,eV/atom,
LaCo(BO$_{2}$)$_{5}$,3.1113999999999997,eV/atom,
BaWO$_{4}$,2.6940999999999997,eV/atom,
CsLaHgSe$_{3}$,1.4529999999999998,eV/atom,
UGaPt,0.0,eV/atom,
CaGaGeH,0.5002,eV/atom,
Li$_{3}$Sc(BO$_{3}$)$_{2}$,4.5439,eV/atom,
TiPO$_{4}$,0.06289999999999996,eV/atom,
NiN,0.0,eV/atom,
BaLiAs,0.5951,eV/atom,
Sc(NiGe)$_{6}$,0.0,eV/atom,
ZrCuF$_{6}$,0.0,eV/atom,
MgHg,0.0,eV/atom,
Se$_{2}$Br$_{3}$N,1.2256,eV/atom,
La$_{2}$CN$_{3}$Cl,1.8792,eV/atom,
LuPb$_{2}$,0.0,eV/atom,
Sr$_{2}$LiTaN$_{3}$F,2.934,eV/atom,
KZrVF$_{7}$,2.4296,eV/atom,
Tb$_{4}$SiBr$_{6}$,0.0,eV/atom,
Ho$_{2}$O$_{3}$,3.9457999999999998,eV/atom,
Ca$_{3}$Cr$_{3}$(PO$_{4}$)$_{4}$,3.2415999999999996,eV/atom,
Cu$_{3}$Bi$_{7}$(PbS$_{5}$)$_{3}$,0.6997,eV/atom,
Ba(SiIr)$_{2}$,0.0,eV/atom,
V$_{6}$PbO$_{11}$,0.0,eV/atom,
K$_{4}$Bi$_{2}$O$_{5}$,2.6155,eV/atom,
LiFeMoClO$_{4}$,2.6688,eV/atom,
HgAs$_{4}$(S$_{2}$I)$_{2}$,2.0015,eV/atom,
Eu(InS$_{2}$)$_{2}$,0.0,eV/atom,
CsMgH$_{3}$,2.6161000000000003,eV/atom,
La$_{3}$Ni$_{2}$Sn$_{7}$,0.0,eV/atom,
SiO$_{2}$,5.6611,eV/atom,
Ba(Cu$_{2}$As)$_{2}$,0.0,eV/atom,
UOF$_{4}$,1.9952999999999999,eV/atom,
Li$_{2}$B$_{3}$PO$_{8}$,5.402900000000001,eV/atom,
ScZn$_{2}$,0.0,eV/atom,
Rb$_{2}$NbCl$_{6}$,0.0,eV/atom,
Hf(MoO$_{4}$)$_{2}$,2.9474,eV/atom,
CeZn$_{2}$,0.0,eV/atom,
HoFe$_{2}$,0.0,eV/atom,
Ni$_{13}$Sn$_{8}$P$_{3}$,0.0,eV/atom,
GaPt$_{3}$C,0.0,eV/atom,
CrB$_{2}$,0.0,eV/atom,
Ca$_{3}$Ru$_{2}$O$_{7}$,0.0,eV/atom,
Rb$_{2}$BeH$_{4}$(SO$_{5}$)$_{2}$,5.0725,eV/atom,
U$_{2}$OsC$_{2}$,0.0,eV/atom,
Ta$_{7}$Cu$_{3}$O$_{19}$,1.1795000000000004,eV/atom,
CeAlH$_{2}$Ir,0.0,eV/atom,
HfOs,0.0,eV/atom,
Dy$_{2}$Te$_{5}$,0.0,eV/atom,
PICl$_{6}$,1.7713999999999999,eV/atom,
Nb$_{2}$CrB$_{2}$,0.0,eV/atom,
CeCoSb$_{2}$,0.0,eV/atom,
UP$_{2}$O$_{7}$,0.0,eV/atom,
Ca(MnGe)$_{2}$,0.0,eV/atom,
KGa(Te$_{3}$O$_{7}$)$_{2}$,2.9741,eV/atom,
KICl$_{4}$,2.2151,eV/atom,
P$_{2}$S$_{3}$,2.4837000000000002,eV/atom,
TlIn$_{3}$S$_{5}$,1.7185999999999995,eV/atom,
BaAgP,0.12489999999999979,eV/atom,
Mg$_{3}$(MnAl$_{9}$)$_{2}$,0.0,eV/atom,
CuH$_{9}$C$_{4}$S$_{4}$N,0.006300000000000083,eV/atom,
BaP$_{2}$(HO$_{4}$)$_{2}$,0.44580000000000003,eV/atom,[Ba+2].O=P([O-])(O)O.O=P([O-])(O)O
ZrSe$_{3}$,0.39369999999999994,eV/atom,
Sm$_{2}$Tc$_{2}$O$_{7}$,0.09609999999999985,eV/atom,
Si$_{2}$Ni$_{3}$H$_{4}$O$_{9}$,3.1670999999999996,eV/atom,
KMnCl$_{3}$,1.9598,eV/atom,
ThP,0.0,eV/atom,
BaZnCO$_{3}$F$_{2}$,4.7744,eV/atom,
AlAsO$_{4}$,4.2482,eV/atom,
CaPt$_{2}$,0.0,eV/atom,
Eu(ZnGe)$_{2}$,0.01540000000000008,eV/atom,
TbHg,0.0,eV/atom,
Mn$_{3}$Ag$_{2}$(P$_{2}$O$_{7}$)$_{2}$,1.9832,eV/atom,
Nb$_{2}$O$_{5}$,2.5212,eV/atom,
TiCdHg$_{2}$,0.0,eV/atom,
HoNi$_{3}$,0.006699999999999484,eV/atom,
HfPRu,0.0,eV/atom,
Zn$_{2}$SiH$_{2}$O$_{5}$,3.1428,eV/atom,
BePH$_{3}$O$_{5}$,5.2,eV/atom,[Be+2].O=P([O-])([O-])O.O
TaF$_{3}$,0.0,eV/atom,
Sr$_{3}$Y$_{2}$(BO$_{3}$)$_{4}$,4.5074,eV/atom,
Rb$_{2}$SbAuS$_{4}$,1.5357999999999998,eV/atom,
CeMnSi$_{2}$,0.0,eV/atom,
CdI$_{2}$,2.38,eV/atom,
CrH$_{4}$C$_{4}$NO$_{10}$,0.0,eV/atom,
TbSbPt,0.09810000000000052,eV/atom,
MgCoGe,0.0,eV/atom,
LaMg$_{2}$,0.0,eV/atom,
K$_{2}$ZrTe$_{3}$,0.41100000000000003,eV/atom,
PCF$_{3}$,0.9723999999999999,eV/atom,
RbUN$_{3}$O$_{11}$,2.3987,eV/atom,
Li$_{8}$SbO$_{3}$,0.0,eV/atom,
RbHo$_{2}$Cu$_{3}$S$_{5}$,1.4781999999999993,eV/atom,
RbV$_{3}$(SeO$_{6}$)$_{2}$,2.3219000000000003,eV/atom,
BaTb$_{2}$NiO$_{5}$,2.2149000000000005,eV/atom,
Eu$_{5}$Si(Cl$_{3}$O$_{2}$)$_{2}$,0.6026999999999996,eV/atom,
Sb$_{2}$OsC$_{4}$(OF$_{3}$)$_{4}$,3.6738,eV/atom,
Ca$_{4}$Ni$_{3}$C$_{5}$,0.0,eV/atom,
Sb$_{2}$Ru,0.008100000000000662,eV/atom,
Ga$_{2}$S$_{3}$,1.6980999999999997,eV/atom,
Tb$_{2}$Co$_{12}$P$_{7}$,0.0,eV/atom,
TePb,0.7206000000000001,eV/atom,
Ca$_{2}$VClO$_{4}$,3.4607,eV/atom,
RbAuF$_{4}$,2.5364000000000004,eV/atom,
Na$_{2}$CrO$_{4}$,2.8677,eV/atom,
MgSiO$_{3}$,4.642100000000001,eV/atom,
Ni$_{2}$W$_{3}$N,0.0,eV/atom,
RhN$_{7}$ClO$_{6}$,0.008100000000000218,eV/atom,
Ca$_{5}$P$_{8}$,1.1418000000000004,eV/atom,
YHg,0.0,eV/atom,
SiO$_{2}$,5.718299999999999,eV/atom,
VFe$_{2}$Si,0.0,eV/atom,
TbB$_{2}$Ir$_{3}$,0.0,eV/atom,
Rb(MoSe)$_{3}$,0.0,eV/atom,
Na$_{2}$PH$_{5}$O$_{6}$,4.3816999999999995,eV/atom,
Ag$_{2}$PSe$_{3}$,0.8588,eV/atom,
Pu$_{13}$Zn$_{58}$,0.0,eV/atom,
Rb$_{5}$Sn(PSe$_{5}$)$_{3}$,1.0812,eV/atom,
Pr$_{2}$Fe$_{2}$S$_{2}$O$_{3}$,1.6445999999999996,eV/atom,
ScPRu,0.0,eV/atom,
Tb$_{3}$Pt$_{4}$,0.0,eV/atom,
KZr$_{6}$CCl$_{15}$,1.1123,eV/atom,
ZrB,0.0,eV/atom,
Na$_{8}$Nb$_{2}$Cu$_{4}$S$_{21}$,1.1534,eV/atom,
NaBi$_{2}$AuO$_{5}$,0.8399000000000001,eV/atom,
GdSe$_{2}$,0.0,eV/atom,
CeFe$_{2}$,0.0,eV/atom,
CdH$_{18}$Se$_{4}$(N$_{2}$O$_{7}$)$_{2}$,3.568,eV/atom,
Sr$_{2}$MgGe$_{2}$O$_{7}$,3.6039,eV/atom,
EuPAu,0.017900000000000027,eV/atom,
Ba$_{5}$(Ga$_{3}$H)$_{2}$,0.37349999999999994,eV/atom,
BiPdSe,0.0,eV/atom,
PrGe$_{3}$Rh,0.0,eV/atom,
Si$_{2}$H$_{25}$C$_{10}$N,4.6311,eV/atom,N1([SiH](C(C)(C)C)C(C)(C)C)[Si](N([SiH](C(C)(C)C)C(C)(C)C)[Si]1(C)C)(C)C
CuAgS,0.2572000000000001,eV/atom,
GdH$_{8}$C$_{10}$N(O$_{2}$F$_{3}$)$_{4}$,3.0036,eV/atom,
Nd(MnCo$_{2}$)$_{4}$,0.0,eV/atom,
Rb$_{6}$U$_{2}$W$_{4}$O$_{21}$,2.1665,eV/atom,
CeAg,0.0,eV/atom,
RbBaTaS$_{4}$,2.4747000000000003,eV/atom,
CsLaCdTe$_{3}$,1.7300999999999997,eV/atom,
SiC,1.9959999999999987,eV/atom,
HfBRh$_{3}$,0.0,eV/atom,
TlIn$_{5}$S$_{7}$,0.7322999999999995,eV/atom,
Pb$_{2}$CO$_{3}$F$_{2}$,3.4728,eV/atom,
LiNd$_{2}$OsO$_{6}$,0.4066000000000001,eV/atom,
Na$_{3}$As,0.06690000000000018,eV/atom,
TlHgCl$_{3}$,2.7589,eV/atom,
Tb$_{2}$Ge$_{2}$O$_{7}$,3.7452,eV/atom,
N$_{2}$O$_{3}$,0.9366,eV/atom,
CsLiMoO$_{4}$,4.4239999999999995,eV/atom,
C$_{3}$N$_{4}$,1.4139000000000004,eV/atom,
K$_{2}$Na(H$_{2}$N)$_{3}$,2.11,eV/atom,
Ba$_{2}$EuReO$_{6}$,0.0022999999999999687,eV/atom,
CaCO$_{3}$,4.7004,eV/atom,
RbAu(SO$_{4}$)$_{2}$,1.7149,eV/atom,
CoH$_{16}$RuN$_{10}$ClO$_{10}$,1.1571,eV/atom,
U(HO$_{2}$)$_{2}$,1.6722999999999995,eV/atom,
LaSi$_{3}$Ir,0.0,eV/atom,
AlPH$_{8}$(CCl$_{2}$)$_{2}$,5.4006,eV/atom,Cl[Al-](Cl)(Cl)Cl.C[PH2+]C
Rb$_{4}$Pb$_{9}$,0.31099999999999994,eV/atom,
Al$_{7}$Si$_{3}$BO$_{18}$,4.6157,eV/atom,
BaBi$_{4}$(ClO$_{3}$)$_{2}$,0.0,eV/atom,
V$_{2}$Cu$_{2}$O$_{7}$,0.0,eV/atom,
CrS,0.0,eV/atom,
Ca$_{3}$TlN,0.0,eV/atom,
TaTe$_{4}$,0.15850000000000009,eV/atom,
LuB$_{12}$,0.0,eV/atom,
PuOs$_{2}$,0.0,eV/atom,
BaNdMn$_{2}$O$_{6}$,0.14090000000000025,eV/atom,
Ba$_{6}$Nb$_{14}$Si$_{4}$O$_{47}$,0.04499999999999993,eV/atom,
Bi(BO$_{2}$)$_{3}$,3.9576,eV/atom,
Mo$_{2}$NCl$_{8}$,0.0,eV/atom,
Y$_{5}$(Si$_{7}$Os$_{2}$)$_{2}$,0.0,eV/atom,
CaPd$_{3}$O$_{4}$,0.0,eV/atom,
Ba$_{3}$EuRu$_{2}$O$_{9}$,0.0,eV/atom,
La$_{2}$Ti$_{3}$(AgO$_{5}$)$_{2}$,1.9412000000000003,eV/atom,
K$_{2}$SN$_{2}$O$_{5}$,3.2988999999999997,eV/atom,
NaCrS$_{2}$,0.9843000000000002,eV/atom,
ErGeRh,0.0,eV/atom,
ErSeClO$_{3}$,4.3487,eV/atom,
ThGeSe,0.0,eV/atom,
TbAlCu,0.0,eV/atom,
YReB$_{4}$,0.0,eV/atom,
SrAu$_{2}$,0.0,eV/atom,
RbHg(NO$_{2}$)$_{3}$,0.0,eV/atom,
Ag$_{2}$HgI$_{4}$,1.2205999999999997,eV/atom,
Na$_{2}$Ca$_{3}$B$_{5}$H$_{2}$S$_{2}$ClO$_{18}$,5.481,eV/atom,
NaMoF$_{6}$,0.0,eV/atom,
Li$_{2}$O$_{2}$,1.9742999999999997,eV/atom,
LuNiO$_{3}$,0.3054999999999999,eV/atom,
Nd$_{2}$Ni$_{17}$,0.0,eV/atom,
Zr$_{2}$Cd,0.0,eV/atom,
Cs$_{2}$PdI$_{6}$,0.5814999999999999,eV/atom,
TbSiRu,0.0,eV/atom,
Ba$_{3}$In$_{2}$Cl$_{2}$O$_{5}$,1.4312,eV/atom,
PH$_{6}$NO$_{4}$,5.3208,eV/atom,
Na$_{2}$GeSe$_{3}$,1.6128,eV/atom,
CaMn$_{7}$O$_{12}$,0.0,eV/atom,
AgSe,0.0,eV/atom,
PH$_{9}$C(NO)$_{4}$,5.0135,eV/atom,
LuMg,0.0,eV/atom,
SrH$_{4}$(ClO)$_{2}$,4.9993,eV/atom,
V$_{2}$Ga$_{5}$,0.0,eV/atom,
Cd(CN)$_{2}$,6.0857,eV/atom,
ZnH$_{8}$(CO$_{2}$)$_{4}$,2.6306,eV/atom,
Li$_{2}$Pr$_{2}$Ge$_{3}$,0.0,eV/atom,
Rb$_{3}$Au$_{3}$Cl$_{8}$,0.8124,eV/atom,
Ti$_{2}$S,0.0,eV/atom,
La$_{12}$Fe$_{2}$I$_{17}$,0.0,eV/atom,
TbInAg$_{2}$,0.0,eV/atom,
YbGa$_{5}$Co,0.0,eV/atom,
K$_{2}$Co(SeO$_{3}$)$_{2}$,2.9145000000000003,eV/atom,