formula,Property band_gap,Property band_gap units,Property SMILES
PrF$_{3}$,5.4589,eV/atom,
ScAu$_{4}$,0.0,eV/atom,
Zr(Ni$_{2}$As)$_{2}$,0.0,eV/atom,
Ag$_{3}$H$_{13}$SeN$_{4}$O$_{5}$,1.9348999999999998,eV/atom,
Rb$_{2}$Li$_{14}$Pr$_{3}$O$_{14}$,0.0,eV/atom,
Ba$_{2}$LuRuO$_{6}$,0.11160000000000014,eV/atom,
ZnCoTeBr$_{2}$O$_{3}$,2.6265,eV/atom,
Sr$_{2}$CoSe$_{2}$(ClO$_{3}$)$_{2}$,2.8926999999999996,eV/atom,
HoCo$_{5}$,0.0,eV/atom,
Gd$_{5}$(C$_{2}$Cl)$_{3}$,0.0,eV/atom,
TiGa,0.0,eV/atom,
Ta$_{6}$Zn$_{7}$,0.0,eV/atom,
Y$_{4}$(FeB$_{2}$)$_{3}$,0.0,eV/atom,
Rb$_{2}$SrV$_{4}$O$_{12}$,2.7935999999999996,eV/atom,
Gd$_{3}$CuSiSe$_{7}$,0.8652000000000002,eV/atom,
H$_{24}$OsC$_{8}$(NF$_{3}$)$_{2}$,0.17430000000000012,eV/atom,
Eu(SiPt)$_{2}$,0.0,eV/atom,
H$_{24}$PtC$_{8}$(NF$_{3}$)$_{2}$,2.8681,eV/atom,
TbAg$_{2}$,0.0,eV/atom,
SnS,1.1323000000000003,eV/atom,
Ba$_{3}$Tb$_{2}$(PS$_{4}$)$_{4}$,2.3711,eV/atom,
Ba$_{2}$NdRuO$_{6}$,0.1532,eV/atom,
BaPd(IO$_{3}$)$_{4}$,1.8749000000000002,eV/atom,
Li$_{2}$H$_{2}$SeO$_{5}$,3.9951999999999996,eV/atom,
TiP$_{2}$H$_{4}$O$_{9}$,2.9716,eV/atom,
AgI,1.3877000000000002,eV/atom,
NiSb$_{2}$,0.0,eV/atom,
Nd$_{3}$Ga$_{5}$O$_{12}$,3.0611,eV/atom,
YGaIr,0.0,eV/atom,
MgGeH$_{12}$(OF)$_{6}$,4.5983,eV/atom,
La$_{3}$CuS$_{3}$O$_{2}$,1.287,eV/atom,
Cs$_{4}$Mg$_{3}$H$_{10}$,3.2805,eV/atom,
ZnS,2.0175,eV/atom,
Tm$_{4}$Mn$_{4}$Sn$_{7}$,0.0,eV/atom,
SnTe$_{3}$O$_{8}$,2.9250999999999996,eV/atom,
DyCu$_{2}$,0.0,eV/atom,
Ti$_{3}$B$_{4}$,0.0,eV/atom,
EuNbO$_{4}$,0,eV/atom,
Na$_{3}$LuSi$_{2}$O$_{7}$,3.9466000000000006,eV/atom,
Na$_{3}$AsH$_{22}$S$_{2}$O$_{13}$,3.0169,eV/atom,
Na$_{15}$SnGe$_{8}$P,0.0,eV/atom,
Sr$_{3}$TaGa$_{3}$(SiO$_{7}$)$_{2}$,3.8521,eV/atom,
CuClF$_{10}$,0.0,eV/atom,
Rb$_{2}$Ca$_{2}$(SiO$_{3}$)$_{3}$,4.1345,eV/atom,
Pr(GeRu)$_{2}$,0.0,eV/atom,
Pr(GeIr)$_{2}$,0.0,eV/atom,
CaTa$_{2}$Bi$_{2}$O$_{9}$,2.9261,eV/atom,
Sr(PO$_{3}$)$_{2}$,5.6893,eV/atom,
ZnH$_{8}$SO$_{8}$,4.6838,eV/atom,
TaSbRu,0.6669,eV/atom,
SiO$_{2}$,5.1678,eV/atom,
TmSnPd$_{2}$,0.0,eV/atom,
Hf(SeCl$_{6}$)$_{2}$,2.7918000000000003,eV/atom,
Sr$_{2}$SiO$_{4}$,4.376799999999999,eV/atom,
Er$_{5}$(CoTe)$_{2}$,0.0,eV/atom,
Cs$_{2}$PtS$_{6}$(O$_{3}$F)$_{6}$,2.1952,eV/atom,
MgMoO$_{4}$,3.7826999999999997,eV/atom,
GdCdPd,0.0,eV/atom,
P$_{3}$SN$_{4}$Cl$_{5}$O,2.6121000000000003,eV/atom,
V$_{3}$Ge,0.0,eV/atom,
TiTeAs,0.0,eV/atom,
V$_{6}$Ga$_{5}$,0.0,eV/atom,
Tb(GePt)$_{2}$,0.0,eV/atom,
DySiIr,0.0,eV/atom,
LuTaO$_{4}$,4.0476,eV/atom,
SrCoO,0.0,eV/atom,
VPO$_{5}$,1.9627999999999999,eV/atom,
Cs$_{2}$PuCl$_{6}$,0.3538999999999999,eV/atom,
V$_{4}$HgO$_{10}$,0.0,eV/atom,
BiPd$_{3}$,0.0,eV/atom,
TmCu,0.0,eV/atom,
Rh(OF$_{3}$)$_{2}$,0.0,eV/atom,
CsCrP$_{2}$O$_{7}$,2.6765999999999996,eV/atom,
Hg$_{3}$(TeCl)$_{2}$,1.9124999999999999,eV/atom,
PuB$_{4}$,0.0,eV/atom,
BiRh,0.0,eV/atom,
CaFeO$_{2}$,1.4643000000000002,eV/atom,
Ba$_{2}$Li(BO$_{2}$)$_{5}$,4.951700000000001,eV/atom,
Rb$_{2}$LiSn$_{4}$,0.9014000000000002,eV/atom,
Nb$_{2}$O$_{5}$,2.171,eV/atom,
K$_{2}$Ag$_{4}$S$_{3}$,0.5081,eV/atom,
Na$_{3}$NO$_{4}$,3.7504,eV/atom,
FeSe$_{2}$NCl$_{6}$,1.3134000000000001,eV/atom,
Mg$_{2}$Cu,0.0,eV/atom,
RbIn$_{3}$S$_{5}$,1.1735000000000002,eV/atom,
Na$_{2}$Ge$_{4}$O$_{9}$,2.8749000000000002,eV/atom,
Cs$_{2}$Li$_{2}$GeO$_{4}$,3.4743999999999997,eV/atom,
Rb$_{2}$ZnH$_{12}$(SeO$_{7}$)$_{2}$,3.6833,eV/atom,
NaNiO$_{2}$,0.5083000000000002,eV/atom,
RbFeF$_{4}$,2.8768000000000002,eV/atom,
NdAlH$_{6}$,2.0368,eV/atom,
CsMnF$_{3}$,3.4542,eV/atom,
Pu$_{3}$Co,0.0,eV/atom,
PW,0.0,eV/atom,
Er$_{3}$Fe$_{5}$O$_{12}$,1.6287999999999996,eV/atom,
B$_{2}$Mo$_{2}$Ir,0.0,eV/atom,
Ba$_{3}$CeRu$_{2}$O$_{9}$,0.0,eV/atom,
ErU$_{2}$S$_{3}$O$_{2}$,0.0,eV/atom,
W$_{2}$Se$_{17}$Cl$_{12}$,0.0,eV/atom,
KMg$_{2}$V$_{3}$(CuO$_{6}$)$_{2}$,0.30069999999999997,eV/atom,
CdSeO$_{3}$,3.4047,eV/atom,
Nb$_{5}$Sb$_{4}$,0.0,eV/atom,
CsVI$_{3}$,0.5972999999999997,eV/atom,
PbIO,0.0,eV/atom,
KSO$_{3}$,4.9636,eV/atom,
HoTlPd,0.0,eV/atom,
Sr$_{4}$GeP$_{4}$,1.0529000000000002,eV/atom,
Sr$_{4}$Al$_{6}$CrO$_{16}$,2.1942999999999997,eV/atom,
Th$_{3}$Au$_{4}$,0.0,eV/atom,
ScOF,4.5928,eV/atom,
ErB$_{3}$Mo,0.0,eV/atom,
La$_{10}$S$_{19}$,0.7225999999999999,eV/atom,
KCeF$_{4}$,0.0,eV/atom,
NdMnSi,0.0,eV/atom,
EuGe$_{3}$Pd,0.0,eV/atom,
RbBiO$_{2}$,2.2042,eV/atom,
Na$_{5}$MnO$_{4}$,1.3859,eV/atom,
Ca$_{2}$CrO$_{8}$,0.4171,eV/atom,
Sr$_{3}$Mn$_{2}$O$_{7}$,0,eV/atom,
TeP$_{6}$H$_{30}$(NO$_{4}$)$_{6}$,3.6423,eV/atom,
Cu$_{7}$P$_{12}$S$_{9}$Cl$_{7}$,1.5304000000000002,eV/atom,
Os(SeBr$_{6}$)$_{2}$,0.1023,eV/atom,
Ce$_{2}$InPt$_{2}$,0.0,eV/atom,
Ca$_{3}$(InNi$_{2}$)$_{4}$,0.0,eV/atom,
Ba$_{5}$Hf$_{4}$S$_{13}$,0.6352000000000002,eV/atom,
AlTlF$_{4}$,4.238300000000001,eV/atom,
ZrPd$_{3}$,0.0,eV/atom,
Sr$_{5}$As$_{5}$HO$_{18}$,3.2622,eV/atom,
SmSiPt,0.0,eV/atom,
Li$_{3}$Ce$_{5}$Ge$_{4}$,6.00000000000378E-4,eV/atom,
Cs$_{3}$AlGe$_{2}$O$_{7}$,3.6471999999999998,eV/atom,
Ho$_{2}$Pd$_{2}$Pb,0.0,eV/atom,
Cs$_{3}$Hg$_{20}$,0.0,eV/atom,
Hf$_{9}$BMo$_{4}$,0.0,eV/atom,
Ta$_{2}$ZnO$_{6}$,3.0662000000000003,eV/atom,
Na$_{2}$Ge$_{2}$S$_{5}$,2.5142,eV/atom,
CuH$_{3}$NCl,2.1168000000000005,eV/atom,
RbMnCl$_{3}$,1.3133000000000001,eV/atom,
Eu$_{2}$B$_{5}$ClO$_{9}$,0.8729000000000005,eV/atom,
Sr(C$_{2}$N$_{3}$)$_{2}$,4.6654,eV/atom,[Sr+2].N#C[N-]C#N.N#C[N-]C#N
NaBr,4.0899,eV/atom,
FeH$_{10}$N$_{2}$OF$_{5}$,3.7499000000000002,eV/atom,
Cd$_{2}$Ru$_{2}$O$_{7}$,0.0,eV/atom,
NaH$_{2}$ClO$_{5}$,5.2933,eV/atom,
Ba$_{2}$ErInTe$_{5}$,0.7431000000000001,eV/atom,
Ca$_{2}$P$_{2}$H$_{8}$O$_{11}$,4.854299999999999,eV/atom,
Na$_{21}$S$_{7}$Cl(O$_{14}$F$_{3}$)$_{2}$,4.905,eV/atom,
AuXe$_{2}$F$_{17}$,1.3692000000000002,eV/atom,
Co(N$_{3}$Cl)$_{2}$,0.0,eV/atom,
Dy$_{2}$AlNi$_{2}$,0.0,eV/atom,
EuTl(MoO$_{4}$)$_{2}$,0.0,eV/atom,
Ti(NF$_{2}$)$_{3}$,0.0,eV/atom,
Ce$_{5}$B$_{4}$C$_{5}$,0.0,eV/atom,
LiGdSe$_{2}$,1.1762000000000001,eV/atom,
LuGa$_{5}$Co,0.0,eV/atom,
BaP$_{3}$,1.4201999999999995,eV/atom,
Hf$_{2}$Al$_{3}$C$_{4}$,0.0,eV/atom,
RhN,0.0,eV/atom,
Er$_{3}$(CoGe$_{2}$)$_{2}$,0.0,eV/atom,
Cr$_{5}$O$_{12}$,1.6425,eV/atom,
K$_{2}$Sn(AsS$_{3}$)$_{2}$,1.0089000000000001,eV/atom,
LuRu$_{2}$,0.0,eV/atom,
BaAlO$_{5}$,1.0314,eV/atom,
YSiNi,0.0,eV/atom,
K$_{4}$ZnP$_{2}$,0.9457,eV/atom,
TmI$_{2}$,0.0,eV/atom,
Sr$_{5}$In$_{3}$,0.0,eV/atom,
Zr$_{2}$InC,0.0,eV/atom,
Ce$_{5}$AgPb$_{3}$,0.0,eV/atom,
TbH$_{3}$,0.02629999999999999,eV/atom,
CeZn$_{3}$,0.0,eV/atom,
Ce$_{5}$(In$_{2}$Pt)$_{2}$,0.0,eV/atom,
KNa$_{9}$In$_{2}$O$_{8}$,1.7136,eV/atom,
UFeC$_{2}$,0.0,eV/atom,
Na$_{3}$YH$_{12}$(CO$_{5}$)$_{3}$,4.5907,eV/atom,[Na+].[Na+].[Na+].[Y+3].O=C([O-])OC(=O)OC(=O)[O-].O=C([O-])OC(=O)OC(=O)[O-].O=C([O-])OC(=O)OC(=O)[O-].O.O.O.O.O.O
Ti$_{7}$O$_{13}$,0.0,eV/atom,
H$_{18}$Se$_{3}$(NO$_{3}$)$_{4}$,1.1293,eV/atom,
TbFeC$_{2}$,0.0,eV/atom,
TiFeO$_{3}$,2.0201000000000002,eV/atom,
Eu(SiNi)$_{2}$,0.0,eV/atom,
P$_{2}$O$_{5}$,5.540900000000001,eV/atom,
RbFeF$_{3}$,0.0,eV/atom,
AlP,1.6302000000000003,eV/atom,
NbTl$_{3}$Se$_{4}$,2.2017,eV/atom,
BaCd,0.0,eV/atom,
RbPd$_{2}$F$_{5}$,0.2456,eV/atom,
Cs$_{2}$KCo(CN)$_{6}$,4.2271,eV/atom,
USb$_{2}$Au,0.0,eV/atom,
Sr$_{7}$Re$_{4}$O$_{19}$,0.0,eV/atom,
CuCSN,2.0694999999999997,eV/atom,
NaMg$_{2}$H$_{3}$(SO$_{4}$)$_{2}$,4.898,eV/atom,
FeBW,0.0,eV/atom,
K(MoS)$_{3}$,0.0,eV/atom,
Ta$_{6}$Ni$_{16}$Ge$_{7}$,0.0,eV/atom,
SrZn,0.0,eV/atom,
TiPd,0.0,eV/atom,
DyPd$_{2}$,0.0,eV/atom,
CsB$_{9}$H$_{14}$,3.8007,eV/atom,
BaMnFeF$_{7}$,2.1283,eV/atom,
H$_{7}$ClO$_{7}$,5.2091,eV/atom,
CsV$_{2}$O$_{5}$,0.19999999999999996,eV/atom,
H$_{3}$CCl,5.5625,eV/atom,ClC
Re$_{3}$Te$_{8}$Cl$_{3}$,0.8757000000000006,eV/atom,
ZnH$_{8}$C$_{2}$N$_{4}$(ClO)$_{2}$,4.7564,eV/atom,
CoHRu$_{3}$(CO)$_{13}$,2.0139,eV/atom,
Ce$_{3}$Al,0.0,eV/atom,
SiO$_{2}$,5.5763,eV/atom,
Th$_{2}$Cu,0.0,eV/atom,
TiCr(BIr)$_{2}$,0.0,eV/atom,
Tl$_{2}$Pt$_{3}$,0.0,eV/atom,
K(ThSe$_{3}$)$_{2}$,0.0,eV/atom,
NaBrO$_{3}$,0.13920000000000005,eV/atom,
PbWO$_{4}$,3.5629999999999997,eV/atom,
PrNiSb$_{3}$,0.0,eV/atom,
FeCo$_{2}$Ge,0.0,eV/atom,
ReO$_{3}$F,3.0005,eV/atom,O=[Re-6](=O)(=O)(F)(F)(F)(F)(F)(F)F
NaMnP$_{2}$H$_{10}$NO$_{10}$,3.76,eV/atom,
K$_{3}$IrCl$_{6}$,1.9930000000000003,eV/atom,
KVPbO$_{4}$,3.3710999999999998,eV/atom,
LaAs$_{2}$,0.5974000000000004,eV/atom,
KNb$_{4}$O$_{5}$F,0.0,eV/atom,
La$_{3}$(ZnPd)$_{4}$,0.0,eV/atom,
Ba$_{4}$CeMn$_{3}$O$_{12}$,1.8542999999999998,eV/atom,
Na$_{2}$VS$_{2}$O$_{9}$,2.6796,eV/atom,
TeAuBr$_{8}$,0.7993,eV/atom,
BaSbPt,0.0,eV/atom,
Eu(AlS$_{2}$)$_{2}$,1.0648999999999997,eV/atom,
KEuGeS$_{4}$,0.006799999999999917,eV/atom,
SiS$_{2}$,3.0676,eV/atom,
SmFe$_{3}$,0.0,eV/atom,
Ba$_{2}$Co(PO$_{4}$)$_{2}$,2.9574,eV/atom,
LiNbZnO$_{4}$,2.7779,eV/atom,
Pr$_{3}$RuI$_{3}$,0.02059999999999995,eV/atom,
HoAlCu,0.0,eV/atom,
LaTiAgO$_{4}$,1.4649999999999999,eV/atom,
MgSO$_{4}$,5.5304,eV/atom,
Na$_{4}$GeO$_{4}$,2.8136,eV/atom,
Rb$_{2}$Mo$_{9}$Se$_{10}$,0.0,eV/atom,
LuBPt$_{2}$,0.0,eV/atom,
La$_{2}$Si$_{2}$O$_{7}$,4.781899999999999,eV/atom,
Tl$_{4}$SiS$_{4}$,1.9549000000000003,eV/atom,
Dy$_{4}$InRh,0.0,eV/atom,
Ba$_{4}$B$_{2}$N$_{4}$O,2.8031999999999995,eV/atom,
SrBi$_{6}$(PO$_{5}$)$_{4}$,3.5083999999999995,eV/atom,
Th$_{2}$P$_{2}$O$_{9}$,5.0733999999999995,eV/atom,
Sc$_{2}$SnAu$_{2}$,0.0,eV/atom,
Ce(SiRh)$_{2}$,0.0,eV/atom,
S$_{7}$(N$_{3}$O$_{4}$)$_{2}$,2.0213,eV/atom,
BeH$_{2}$SeO$_{4}$,4.753,eV/atom,
K$_{3}$ScSi$_{2}$O$_{7}$,3.6385,eV/atom,
CuAgO$_{2}$,0.0,eV/atom,
FeCu$_{2}$SiSe$_{4}$,0.0,eV/atom,
H$_{10}$SO$_{8}$,5.508,eV/atom,O=S(=O)(O)O.O.O.O.O
Er$_{3}$Ni,0.02330000000000032,eV/atom,
Ho$_{5}$(ReO$_{6}$)$_{2}$,0.0,eV/atom,
K$_{7}$LiSi$_{8}$,1.6927,eV/atom,
Rb$_{3}$CoNCl$_{4}$O$_{3}$,2.7376,eV/atom,
LuZnPd,0.0,eV/atom,
AgBiS$_{2}$,0.5000999999999998,eV/atom,
HgSe,0,eV/atom,
YSi$_{2}$Rh$_{3}$,0.0,eV/atom,
Li$_{3}$Ni$_{2}$SbO$_{6}$,2.7899,eV/atom,
FeH$_{24}$C$_{8}$(NCl$_{2}$)$_{2}$,0.013899999999999801,eV/atom,
Ca$_{3}$Al$_{2}$(SiO$_{4}$)$_{3}$,4.992699999999999,eV/atom,
Ce$_{2}$(SbPd$_{3}$)$_{3}$,0.0,eV/atom,
La$_{4}$C$_{5}$Cl$_{2}$,0.0,eV/atom,
Ba$_{2}$Cd(BO$_{3}$)$_{2}$,3.0255,eV/atom,
NdRhO$_{3}$,0.6467999999999998,eV/atom,
LaCuSn,0.0,eV/atom,
Na$_{3}$H$_{7}$Ru,2.5195,eV/atom,
La$_{5}$(AlBr)$_{4}$,0.0,eV/atom,
K$_{2}$B$_{6}$H$_{2}$O$_{11}$,5.364199999999999,eV/atom,
UPd$_{3}$,0.0,eV/atom,
CuH$_{16}$(ClO$_{8}$)$_{2}$,0.0,eV/atom,
SrMnOF$_{5}$,0.0,eV/atom,
SrBPO$_{5}$,5.3818,eV/atom,
AlPO$_{4}$,0.0,eV/atom,
Sc$_{5}$(Re$_{2}$Si$_{3}$)$_{4}$,0.0,eV/atom,
ErVO$_{3}$,1.5712000000000002,eV/atom,
LiPrO$_{2}$,3.5331999999999995,eV/atom,
Bi$_{24}$Ru$_{3}$Br$_{20}$,0.7997000000000001,eV/atom,
Sr$_{9}$Cr$_{5}$O$_{18}$,0.8516000000000004,eV/atom,
NdSiNi$_{4}$,0.0,eV/atom,
MnH$_{6}$(OF)$_{3}$,1.5091999999999999,eV/atom,
PNCl$_{2}$,3.9764,eV/atom,N1=PNPNPNPNP1
LiScMo$_{3}$O$_{8}$,0.0,eV/atom,
ThTl,0.0,eV/atom,
DyAl$_{2}$Ni,0.0,eV/atom,
K(In$_{3}$Au$_{2}$)$_{2}$,0.0,eV/atom,
KAgO,1.4716,eV/atom,
Ho(GaFe)$_{6}$,0.0,eV/atom,
Tb(Zn$_{10}$Fe)$_{2}$,0.0,eV/atom,
KCa$_{12}$Si$_{4}$S$_{2}$O$_{26}$F,4.2813,eV/atom,
YInAg$_{2}$,0.0,eV/atom,
Sr(NiAs)$_{2}$,0.0,eV/atom,
H$_{8}$Pt(NCl$_{3}$)$_{2}$,1.7694,eV/atom,
Ti$_{4}$P$_{3}$,0.0,eV/atom,
Pr(MnAl$_{2}$)$_{4}$,0.0,eV/atom,
U(SiPd)$_{2}$,0.0,eV/atom,
HgO$_{2}$,0.2876000000000001,eV/atom,
ZrTa$_{2}$N$_{3}$,0.0,eV/atom,
CuSiH$_{8}$(O$_{2}$F$_{3}$)$_{2}$,0.9868,eV/atom,[Cu+2].F[Si-2](F)(F)(F)(F)F.O.O.O.O
Na$_{4}$(BSe)$_{9}$,2.206,eV/atom,
Sr(CuSi)$_{2}$,0,eV/atom,
FeTe$_{2}$ClO$_{5}$,2.1340000000000003,eV/atom,
Rh$_{3}$W,0.0,eV/atom,
NdP$_{3}$(H$_{4}$O$_{5}$)$_{3}$,4.3711,eV/atom,
V$_{2}$Co(PO$_{5}$)$_{2}$,1.5733000000000001,eV/atom,
Bi$_{2}$MoO$_{6}$,0.5907,eV/atom,
CeVO$_{4}$,0.2667999999999999,eV/atom,
Gd$_{3}$Se$_{4}$O$_{12}$F,2.7816,eV/atom,
SrBe$_{2}$(PO$_{4}$)$_{2}$,5.7435,eV/atom,
SmCu$_{5}$,0.020999999999999908,eV/atom,
BaCe$_{2}$ZnS$_{5}$,0,eV/atom,
Sc(MnSn)$_{6}$,0.0,eV/atom,
ErSb,0.0,eV/atom,
K$_{6}$Te$_{2}$P$_{6}$(H$_{4}$O$_{11}$)$_{3}$,0.45600000000000007,eV/atom,
N$_{2}$,0.0,eV/atom,[N]
Ce(TiAl$_{10}$)$_{2}$,0.0,eV/atom,
LiIn$_{2}$Pt,0.0,eV/atom,
Ti$_{3}$Au,0.0,eV/atom,
KSb$_{2}$PO$_{8}$,2.2122,eV/atom,
ScAgGe,0.0,eV/atom,
BN,3.5086,eV/atom,
Rb$_{2}$Ni$_{2}$(MoO$_{4}$)$_{3}$,3.3411999999999997,eV/atom,
Cs$_{2}$Co$_{2}$(MoO$_{4}$)$_{3}$,2.6641999999999997,eV/atom,
Dy(BRh)$_{4}$,0.0,eV/atom,
NiB$_{6}$(H$_{8}$O$_{9}$)$_{2}$,4.9323,eV/atom,
Er(MnAl$_{2}$)$_{4}$,0.0,eV/atom,
K$_{2}$MoO$_{8}$,2.0176,eV/atom,
ErGaCo,0.0,eV/atom,
P$_{3}$Pd,0.0,eV/atom,
Ga$_{4}$P$_{4}$O$_{17}$,0.21899999999999986,eV/atom,
TaI$_{5}$,1.1727,eV/atom,
DyNbO$_{4}$,3.6771,eV/atom,
BaGe,0.0,eV/atom,
TmCoGe,0.0,eV/atom,
K$_{2}$RbGdV$_{2}$O$_{8}$,3.3851999999999998,eV/atom,
LiH$_{2}$N,3.2582,eV/atom,
SrGeO$_{3}$,0.0,eV/atom,
LiO$_{2}$,0.0,eV/atom,
Np$_{3}$In,0.0,eV/atom,
SmNiSb$_{2}$,0.0,eV/atom,
BiSeBr,1.6912,eV/atom,
ZnPbO$_{3}$,0.0,eV/atom,
KH,3.4387,eV/atom,
Mn$_{3}$V$_{2}$O$_{8}$,1.9247,eV/atom,
BaCd$_{2}$Pt,0.0,eV/atom,
BaP$_{10}$,1.2913999999999994,eV/atom,
Ba$_{2}$Nb$_{5}$O$_{9}$,0.0,eV/atom,
Na$_{3}$Ca$_{2}$BiO$_{6}$,1.7528,eV/atom,
Zr$_{6}$Fe$_{23}$,0.0,eV/atom,
LiRhO$_{2}$,1.513,eV/atom,
HoGaPd,0.0,eV/atom,
CSeN,2.1805,eV/atom,
TmTlTe$_{2}$,1.5846999999999998,eV/atom,
Nb$_{2}$O$_{5}$,1.6713,eV/atom,
Er$_{2}$InAu$_{2}$,0.0,eV/atom,
InPH$_{2}$O$_{5}$,3.3186999999999998,eV/atom,
PtCl$_{2}$,1.8227000000000002,eV/atom,
CeMgTl,0.0,eV/atom,
Rb$_{3}$Mo$_{12}$PO$_{40}$,2.2622,eV/atom,
K$_{4}$Zr$_{5}$O$_{12}$,3.1864999999999997,eV/atom,
KTaGeO$_{5}$,3.9009,eV/atom,
La$_{4}$MnSe$_{6}$O,1.9432,eV/atom,
TlI$_{3}$,1.6813,eV/atom,
USnRh,0.0,eV/atom,
Ca(SbO$_{3}$)$_{2}$,2.6942999999999997,eV/atom,
SbBr(OF$_{3}$)$_{2}$,1.9777,eV/atom,O=[Br+]=O.F[Sb-](F)(F)(F)(F)F
Ba$_{5}$Gd$_{8}$Zn$_{4}$O$_{21}$,2.7998000000000003,eV/atom,
Na$_{5}$CoSO$_{2}$,1.1386999999999998,eV/atom,
LuAs,0.0,eV/atom,
MnSe,0.06389999999999985,eV/atom,
Tm$_{3}$(CuSi)$_{4}$,0.0,eV/atom,
RbVBr$_{3}$,0.5839000000000003,eV/atom,
Sr$_{2}$RuO$_{4}$,0.0,eV/atom,
CaAl$_{9}$Ni,0.0,eV/atom,
CuH$_{6}$(CO$_{2}$)$_{4}$,0.0,eV/atom,
BaPr$_{2}$MnS$_{5}$,0.46639999999999926,eV/atom,
LiFe(SeO$_{3}$)$_{2}$,2.6327,eV/atom,
Mn$_{2}$SiRu,0.0,eV/atom,
Rb$_{5}$GaO$_{4}$,1.8405,eV/atom,
TiSb$_{2}$,0.0,eV/atom,
MnRe(PbO$_{3}$)$_{2}$,0.0,eV/atom,
HfVP,0.0,eV/atom,
NaB(H$_{4}$O)$_{2}$,5.8288,eV/atom,
Ca$_{5}$As$_{3}$O$_{12}$F,3.9518000000000004,eV/atom,
CdI$_{2}$,2.3505000000000003,eV/atom,
DySiNi$_{4}$,0.0,eV/atom,
La$_{2}$MgNi$_{2}$,0.0,eV/atom,
In$_{3}$Cu$_{7}$,0.005799999999998917,eV/atom,
Zn$_{36}$Ga$_{5}$Ni$_{8}$,0.0,eV/atom,
MnGePd$_{2}$,0.0,eV/atom,
KFe(SO$_{4}$)$_{2}$,2.1547,eV/atom,
FeAsO$_{4}$,2.3256,eV/atom,
Eu$_{2}$Ge$_{3}$Au,0.0,eV/atom,
YMg(NiH)$_{4}$,0.0,eV/atom,
Te$_{3}$P$_{2}$O$_{11}$,3.3954,eV/atom,
Zn$_{2}$Si$_{3}$Pb$_{4}$SO$_{15}$,3.4961000000000007,eV/atom,
KGaS$_{2}$,2.5331,eV/atom,
CsLi$_{2}$(HO)$_{3}$,4.1415,eV/atom,
LiSmGe,0.0,eV/atom,
H$_{8}$PdC$_{2}$NCl$_{3}$,1.4783000000000002,eV/atom,
CsAlF$_{4}$,6.7432,eV/atom,
V$_{2}$O$_{3}$,0.0,eV/atom,
LiCu(PO$_{3}$)$_{3}$,0.6669,eV/atom,
PH$_{9}$C$_{3}$Br$_{3}$N,2.666,eV/atom,BrP(Br)Br.N(C)(C)C
Y$_{2}$MgSe$_{4}$,1.3007,eV/atom,
ReTc(PbO$_{3}$)$_{2}$,0.0,eV/atom,
PrNiB$_{4}$,0.0,eV/atom,
Zn$_{4}$Si$_{2}$O$_{9}$,0.13230000000000008,eV/atom,
YGa$_{2}$Ni,0.0,eV/atom,
YP$_{5}$,0.13399999999999945,eV/atom,
Li$_{4}$SeO$_{5}$,2.4442,eV/atom,
LaTe$_{3}$,0.0,eV/atom,
Al$_{2}$CuCl$_{8}$,0.5592999999999999,eV/atom,
NiH$_{18}$(I$_{5}$N$_{3}$)$_{2}$,0.7234,eV/atom,
Rb$_{2}$MoS$_{4}$,1.575,eV/atom,
Ba$_{21}$Al$_{40}$,0.0,eV/atom,
HoPH$_{5}$CO$_{7}$,3.7117,eV/atom,
NdGaPt,0.0,eV/atom,
KLa(PO$_{3}$)$_{4}$,4.348199999999999,eV/atom,
KFeCl$_{3}$,0.0477000000000003,eV/atom,
Ce$_{3}$Pt$_{4}$,0.0,eV/atom,
As$_{3}$Ir,0.7873999999999999,eV/atom,
Er$_{4}$Sb$_{3}$,0.0,eV/atom,
GdMgIn,0.0,eV/atom,
HoNiO$_{3}$,0.0,eV/atom,
V$_{2}$Pb$_{3}$O$_{8}$,3.0493,eV/atom,
Pu$_{5}$Rh$_{4}$,0.003200000000001424,eV/atom,
BaVSi$_{2}$O$_{7}$,2.4363,eV/atom,
Cr$_{2}$Ag$_{2}$O$_{7}$,1.3371,eV/atom,
K$_{2}$Bi$_{8}$Se$_{13}$,0.8140000000000001,eV/atom,
K$_{3}$Mo$_{3}$Se$_{14}$,0.9008000000000003,eV/atom,
BaNpPH$_{2}$O$_{7}$,0.03410000000000046,eV/atom,
Rb$_{2}$MoO$_{4}$,4.4469,eV/atom,
Yb$_{2}$S$_{3}$,1.7523000000000004,eV/atom,
CrSiNi,0.0,eV/atom,
Tb$_{6}$In$_{23}$Pt$_{12}$,0.0,eV/atom,
Ag$_{2}$H$_{12}$C$_{6}$N$_{3}$Cl,3.4853,eV/atom,
Sr$_{3}$(LiSb)$_{4}$,0.0,eV/atom,
Sb$_{4}$PdC$_{4}$(O$_{2}$F$_{11}$)$_{2}$,3.2589,eV/atom,
Nd(MnSi)$_{2}$,0.0,eV/atom,
Na$_{2}$TiH$_{4}$O$_{5}$,0.0,eV/atom,
Ni$_{2}$W$_{4}$C,0.0,eV/atom,
RbPr$_{6}$(CI$_{6}$)$_{2}$,0.16639999999999988,eV/atom,
V$_{8}$O$_{15}$,0.6443999999999996,eV/atom,
DyCoSn$_{2}$,0.0,eV/atom,
Eu$_{2}$SO$_{6}$,0.0,eV/atom,
PrNi$_{2}$B$_{2}$C,0.0,eV/atom,
Ge$_{3}$Bi$_{2}$O$_{9}$,2.9644,eV/atom,
Sc$_{2}$CrB$_{2}$Rh$_{5}$,0.0,eV/atom,
GdGe,0.0,eV/atom,
Tb$_{5}$CoSb$_{2}$,0.0,eV/atom,
GdAl$_{3}$Cu,0.0,eV/atom,
Te$_{2}$Rh,0.0,eV/atom,
MnGeRh$_{2}$,0.0,eV/atom,
Ga$_{2}$Au,0.0,eV/atom,
Co$_{7}$Te$_{4}$(BrO$_{2}$)$_{6}$,2.2401,eV/atom,
CsTiCu$_{3}$Se$_{4}$,1.2487999999999997,eV/atom,
N$_{2}$,1.0556999999999999,eV/atom,[N]
Na$_{17}$In$_{12}$Ga$_{29}$,0.0,eV/atom,
ZrNCl,1.7226999999999997,eV/atom,
FeGe$_{4}$H$_{24}$C$_{8}$(S$_{5}$N)$_{2}$,0.2570999999999999,eV/atom,
K$_{2}$YF$_{5}$,6.8081,eV/atom,
FeSCl$_{7}$,1.3835,eV/atom,
Yb$_{7}$Au$_{3}$,0.0,eV/atom,
CsI,3.1258,eV/atom,
Cr$_{2}$NiS$_{4}$,0.0,eV/atom,
Y$_{6}$AgTe$_{2}$,0.0,eV/atom,
TmSnPd,0.0,eV/atom,
DySI,2.7811,eV/atom,
La$_{15}$B$_{14}$C$_{19}$,0.0,eV/atom,
K$_{2}$Sb$_{2}$S(O$_{2}$F$_{3}$)$_{2}$,4.3549,eV/atom,
RbCdGeAs$_{2}$,0.6743999999999999,eV/atom,
Tb$_{4}$InGe$_{4}$Rh,0.0,eV/atom,
Zr(PO$_{3}$)$_{4}$,4.1549,eV/atom,
La$_{3}$RuI$_{3}$,0.013099999999999667,eV/atom,
Cd$_{3}$(PO$_{4}$)$_{2}$,2.3908,eV/atom,
Y$_{6}$CoBi$_{2}$,0.0,eV/atom,
Li$_{2}$B$_{4}$H$_{4}$O$_{9}$,5.1171999999999995,eV/atom,
LaNi$_{2}$AsN,0.0,eV/atom,
CaHI,3.5269,eV/atom,
Cs$_{2}$TmCl$_{4}$,0.0,eV/atom,
CSNO$_{2}$F$_{3}$,4.7073,eV/atom,
Rb$_{2}$U$_{2}$Mo$_{3}$O$_{16}$,2.3517,eV/atom,
SiO$_{2}$,5.4591,eV/atom,
Na$_{2}$CoP$_{4}$(H$_{4}$O$_{5}$)$_{4}$,3.2701000000000002,eV/atom,
Ga$_{8}$(Pb$_{3}$O$_{7}$)$_{3}$,2.697,eV/atom,
LuFe$_{2}$,0.0,eV/atom,
NaAg$_{3}$S$_{2}$,0.9283999999999999,eV/atom,
Hg$_{3}$(SeI)$_{2}$,1.1291000000000002,eV/atom,
KC$_{2}$IN$_{2}$,4.5211,eV/atom,
Ba$_{4}$NdMn$_{3}$O$_{12}$,0.0,eV/atom,
NaB(S$_{2}$O$_{7}$)$_{2}$,5.5222,eV/atom,[B+3].[Na+].O=S(=O)([O-])OS(=O)(=O)[O-].O=S(=O)([O-])OS(=O)(=O)[O-]
SrMg$_{2}$,0.0,eV/atom,
NiH$_{2}$(SN)$_{4}$,0.9638999999999998,eV/atom,
SiOs,0.0,eV/atom,
Na$_{2}$LiAlF$_{6}$,7.2073,eV/atom,
BeAl$_{6}$O$_{10}$,5.4595,eV/atom,
Pr$_{3}$Sn$_{5}$Au$_{6}$,0.0,eV/atom,
RbCuPdSe$_{5}$,0.9872000000000001,eV/atom,
InP$_{3}$,0.0,eV/atom,
LaCO,3.0016000000000007,eV/atom,
Er$_{2}$(NiB$_{2}$)$_{3}$,0.0,eV/atom,
Ba(SiNi)$_{2}$,0.0,eV/atom,
HoGaCo,0.0,eV/atom,
C$_{20}$Cl$_{3}$,1.4316,eV/atom,
ZnH$_{8}$(NO$_{5}$)$_{2}$,3.4534000000000002,eV/atom,[Zn+2].O=[N+]([O-])[O-].O=[N+]([O-])[O-].O.O.O.O
Cs$_{2}$TeO$_{4}$,2.8284,eV/atom,
Zn$_{2}$SiO$_{4}$,2.7537000000000003,eV/atom,
Nd(SiAu)$_{2}$,0.0,eV/atom,
K$_{2}$B$_{4}$O$_{7}$,4.821,eV/atom,
KPb$_{2}$Cl$_{5}$,3.6136999999999997,eV/atom,
Ba$_{3}$Ho$_{2}$(PS$_{4}$)$_{4}$,2.3798999999999997,eV/atom,
La$_{2}$PdO$_{4}$,0.0,eV/atom,
Mg$_{2}$SiO$_{4}$,4.7521,eV/atom,
FeBO$_{3}$,1.6988999999999996,eV/atom,
CeMg$_{2}$Cu,0.0,eV/atom,
MgAsPt$_{5}$,0.0,eV/atom,
ThI$_{3}$,0.0,eV/atom,
Gd$_{2}$MoO$_{6}$,2.0817,eV/atom,
NbGaCo$_{2}$,0.0,eV/atom,
KNdMnWO$_{6}$,2.5667,eV/atom,
URe$_{2}$,0.0,eV/atom,
LaAuO$_{3}$,1.7976999999999999,eV/atom,
FeBi$_{4}$S$_{7}$,0.2754000000000003,eV/atom,
K$_{2}$SeBr$_{6}$,1.688,eV/atom,
Tb$_{5}$Se$_{2}$Cl$_{3}$O$_{10}$,3.7344999999999997,eV/atom,
Cs$_{5}$Nb$_{2}$S$_{4}$Br$_{9}$,1.7892000000000001,eV/atom,
Zn$_{13}$Co,0.0,eV/atom,
Ba$_{3}$NiO$_{4}$,2.29,eV/atom,
DyPb$_{3}$,0.0,eV/atom,
CsNd(PO$_{3}$)$_{4}$,5.493200000000001,eV/atom,
Ca$_{2}$GePd$_{2}$,0.0,eV/atom,
Al$_{3}$Bi$_{5}$Br$_{12}$,1.5953,eV/atom,
BaCoBP$_{2}$HO$_{9}$,3.0073,eV/atom,
Zr$_{3}$SO$_{9}$,3.8054999999999994,eV/atom,
Cu(RhO$_{2}$)$_{2}$,0.0,eV/atom,
Sn$_{7}$Ru$_{3}$,0.0,eV/atom,
Gd$_{2}$(Ga$_{3}$Co)$_{3}$,0.0,eV/atom,
CaH$_{6}$C$_{2}$(NO)$_{4}$,4.6548,eV/atom,[Ca+2].O=C([O-])NN.O=C([O-])NN
Na$_{2}$ZnB$_{6}$O$_{11}$,4.7511,eV/atom,
BaLaAgSe$_{3}$,1.7195,eV/atom,
BaTiO$_{3}$,2.3004000000000002,eV/atom,