formula,Property band_gap,Property band_gap units,Property SMILES
Al$_{3}$P$_{3}$H$_{9}$C$_{3}$NO$_{14}$,4.958100000000001,eV/atom,
Cs$_{3}$Sb$_{2}$I$_{9}$,1.5431000000000001,eV/atom,
RbCoH$_{24}$(C$_{7}$N$_{4}$)$_{2}$,4.2736,eV/atom,
HgPPd$_{5}$,0.0,eV/atom,
SiC,1.9979999999999993,eV/atom,
Fe$_{5}$(SiO$_{4}$)$_{3}$,2.4238,eV/atom,
PrCuSb$_{2}$,0.0,eV/atom,
GdAl$_{7}$Au$_{3}$,0.06319999999999926,eV/atom,
HoB$_{4}$,0.0,eV/atom,
LuVO$_{4}$,2.6045999999999996,eV/atom,
SnS,1.6680000000000001,eV/atom,
Ho(FeSi)$_{2}$,0.0,eV/atom,
Yb(MgBi)$_{2}$,0.27360000000000007,eV/atom,
K$_{2}$PO$_{3}$F,4.4626,eV/atom,
TbSiPt,0.0,eV/atom,
Cs$_{4}$TlSbCl$_{12}$,0.9016,eV/atom,
Ho$_{5}$Ru$_{2}$,0.0,eV/atom,
MgZn,0.0,eV/atom,
Ba$_{2}$Mn$_{3}$(SbO)$_{2}$,0.0,eV/atom,
GaCo,0.0,eV/atom,
NaCr(GeO$_{3}$)$_{2}$,2.6628000000000003,eV/atom,
V$_{2}$Te$_{2}$O$_{9}$,2.5242999999999998,eV/atom,
UCrS$_{3}$,0.0,eV/atom,
Ti$_{5}$P$_{3}$,0.0,eV/atom,
BaGe(S$_{2}$O$_{7}$)$_{3}$,3.9450000000000003,eV/atom,
La$_{4}$Ru$_{6}$O$_{19}$,0.0,eV/atom,
EuSbPt,0.032999999999999474,eV/atom,
LiYbGe$_{2}$,0.0,eV/atom,
Al$_{5}$Rh$_{2}$,0.0,eV/atom,
Pr$_{3}$S$_{3}$N,1.4853999999999998,eV/atom,
BaNaLi$_{3}$(BO$_{2}$)$_{6}$,5.2185,eV/atom,
NaTlO$_{2}$,0.6210999999999998,eV/atom,
Ca$_{2}$AgPd$_{2}$,0.0,eV/atom,
Mn$_{6}$P$_{4}$H$_{2}$O$_{17}$,2.8920999999999997,eV/atom,
PrNi$_{4}$B,0.0,eV/atom,
LaCuSO,1.6691000000000003,eV/atom,
LaIr$_{2}$,0.0,eV/atom,
Bi$_{32}$P$_{10}$Pb$_{3}$O$_{76}$,2.2872000000000003,eV/atom,
CuSb$_{2}$ClO$_{3}$,0.6385000000000005,eV/atom,
EuHgPb,0.0,eV/atom,
ScAlAu,0.0,eV/atom,
CoH$_{10}$C$_{4}$(N$_{2}$O$_{3}$)$_{2}$,2.8516,eV/atom,
Cu$_{3}$Pd,0.0,eV/atom,
CsMn$_{2}$V$_{2}$ClO$_{7}$,1.8915000000000002,eV/atom,
PrFeGe$_{2}$,0.0,eV/atom,
K$_{2}$ThF$_{6}$,6.3857,eV/atom,
KCd$_{3}$H$_{8}$Cl$_{7}$O$_{4}$,3.4217000000000004,eV/atom,
SiP,0.0,eV/atom,
Nb$_{2}$Tl$_{4}$S$_{11}$,1.2121,eV/atom,
Cu$_{3}$B$_{7}$IO$_{13}$,0.0,eV/atom,
Li$_{2}$PrGe,0.0,eV/atom,
NaCrF$_{6}$,1.374,eV/atom,
LiAuC$_{2}$,1.5321,eV/atom,
Ta$_{2}$SnO$_{6}$,2.2893,eV/atom,
LaNiO$_{3}$,0.0,eV/atom,
La$_{3}$AlCrS$_{7}$,0.0,eV/atom,
EuGe$_{2}$Ir,0.0,eV/atom,
MgH$_{12}$SO$_{10}$,0.3904000000000001,eV/atom,
SiO$_{2}$,5.5127,eV/atom,
Mg$_{3}$H$_{13}$C$_{9}$NO$_{13}$,4.0947,eV/atom,[Mg+2].[Mg+2].[Mg+2].O=C[O-].O=C[O-].O=C[O-].O=C[O-].O=C[O-].O=C[O-].O=C([O-])O.C[NH2+]C
Gd(Co$_{2}$B)$_{6}$,0.0,eV/atom,
SrP$_{2}$(H$_{2}$O$_{3}$)$_{3}$,5.3385,eV/atom,
Sr$_{2}$YbReO$_{6}$,0.0,eV/atom,
K$_{2}$SnSe$_{3}$,1.646,eV/atom,
Ca$_{4}$In$_{2}$N,0.0,eV/atom,
HfGaCo$_{2}$,0.0,eV/atom,
Al$_{2}$SiO$_{5}$,5.4037999999999995,eV/atom,
KNaZnP$_{2}$O$_{7}$,4.2038,eV/atom,
AgPdF$_{6}$,0.2169000000000001,eV/atom,
Ta$_{2}$Pt$_{3}$Se$_{8}$,0.6803000000000003,eV/atom,
CoReO$_{4}$,0,eV/atom,
ScNiB$_{4}$,0.0,eV/atom,
Th$_{2}$FeB$_{10}$,0.0,eV/atom,
Th(GePt)$_{2}$,0.0,eV/atom,
V$_{5}$O$_{9}$,0.7882999999999996,eV/atom,
HfBe$_{13}$,0.0,eV/atom,
PrPH$_{5}$CO$_{7}$,3.7298,eV/atom,
CsTeAu,1.2960999999999998,eV/atom,
Li$_{4}$UF$_{8}$,0.33740000000000014,eV/atom,
LaPd$_{2}$,0.0,eV/atom,
C$_{2}$SeS$_{2}$O$_{7}$F$_{6}$,3.6235,eV/atom,
Ba$_{17}$Al$_{3}$O$_{7}$,0.0047000000000001485,eV/atom,
Na$_{4}$W(NO)$_{2}$,1.9524000000000001,eV/atom,
HoSiRh,0.062300000000000466,eV/atom,
NbP$_{2}$Se$_{2}$Cl$_{5}$,1.3226,eV/atom,
Na$_{14}$Cd$_{2}$O$_{9}$,1.3840999999999999,eV/atom,
BaZn$_{2}$(PO$_{4}$)$_{2}$,4.0373,eV/atom,
SrMnBi$_{2}$,0.0,eV/atom,
Li$_{4}$Ge$_{9}$O$_{20}$,2.9382,eV/atom,
TmAlRh,0.0,eV/atom,
NdHg,0.0,eV/atom,
Na$_{2}$PH$_{5}$O$_{6}$,4.7242999999999995,eV/atom,
C$_{2}$N,3.1235,eV/atom,N#CC=1C(C#N)=C(C#N)C(C#N)=C(C#N)C1C#N
SiO$_{2}$,5.6009,eV/atom,
AlSeBr$_{7}$,2.1629,eV/atom,
Co$_{3}$SnC,0.0,eV/atom,
Na$_{2}$CuSbS$_{3}$,1.2330999999999999,eV/atom,
RbHfF$_{5}$,6.798,eV/atom,
Y$_{3}$TaO$_{7}$,3.5002,eV/atom,
ZnP$_{2}$,0.7455999999999996,eV/atom,
KEuPO$_{4}$,0.9541999999999993,eV/atom,
Tb$_{3}$(CuSi)$_{4}$,0.0,eV/atom,
Ba(ZnSb)$_{2}$,0.0,eV/atom,
KLaCO$_{4}$,0.0,eV/atom,
LaH$_{24}$C$_{3}$N$_{3}$(Cl$_{2}$O)$_{3}$,4.1757,eV/atom,
Cs$_{4}$CO$_{4}$,1.3169999999999997,eV/atom,
K$_{3}$ZnH$_{5}$,3.7100999999999997,eV/atom,
Tl(FeS)$_{2}$,0.0,eV/atom,
Hf$_{2}$Si,0.0,eV/atom,
EuYSi$_{4}$N$_{7}$,0.5528999999999993,eV/atom,
Tm$_{6}$ReO$_{12}$,0.05689999999999973,eV/atom,
PrRh$_{2}$,0.0,eV/atom,
Rb$_{2}$Zn$_{3}$O$_{4}$,1.4095,eV/atom,
KTaO$_{3}$,2.0983,eV/atom,
SbCl$_{3}$,3.7419,eV/atom,
Ca$_{3}$Cr$_{2}$(SiO$_{4}$)$_{3}$,3.2228999999999997,eV/atom,
H$_{6}$Pd(NO)$_{4}$,2.3076,eV/atom,
NdZnSn,0.0,eV/atom,
Fe$_{2}$TeWC$_{10}$SeO$_{10}$,1.912,eV/atom,
DyCuSb$_{2}$,0.0,eV/atom,
Rb$_{2}$As$_{3}$,0.39680000000000004,eV/atom,
CuSe,0.0,eV/atom,
NaYbCO$_{3}$F$_{2}$,0.6712,eV/atom,
ZrIn$_{3}$,0.0,eV/atom,
PbSe,0.43100000000000005,eV/atom,
Sr$_{5}$B$_{3}$ClO$_{9}$,3.9640999999999993,eV/atom,
In(MoSe)$_{3}$,0.5496999999999996,eV/atom,
SmBO$_{3}$,5.1718,eV/atom,
CsReBrCl$_{3}$,1.1778,eV/atom,
LiInSn,0.0,eV/atom,
K$_{5}$(DyI$_{4}$)$_{3}$,0.0,eV/atom,
P$_{6}$H$_{26}$N$_{7}$ClO$_{19}$,3.2264,eV/atom,
TeRh,0.0,eV/atom,
TeF$_{6}$,4.3688,eV/atom,
Be(B$_{3}$H$_{7}$)$_{2}$,4.2788,eV/atom,
Tl$_{2}$SnTe$_{5}$,0.0,eV/atom,
RbVH$_{24}$(SO$_{10}$)$_{2}$,2.676,eV/atom,
Cd$_{2}$Ru(CN)$_{6}$,2.6444,eV/atom,
SrZn$_{5}$,0.0,eV/atom,
Li$_{2}$RhF$_{6}$,0.0,eV/atom,
BeTe,2.0172999999999996,eV/atom,
RbSe,0.0,eV/atom,
Fe$_{2}$GeS$_{4}$,0.40439999999999987,eV/atom,
InH$_{5}$NOF$_{4}$,4.7597,eV/atom,
CaAlH$_{5}$,2.936,eV/atom,
CrO,0,eV/atom,
TlIn$_{5}$S$_{6}$,1.0,eV/atom,
InRe$_{2}$C$_{10}$ClO$_{10}$,2.4128,eV/atom,
LaBr$_{3}$,2.9248000000000003,eV/atom,
Rb$_{5}$Fe$_{3}$(SO$_{5}$)$_{6}$,0.09760000000000013,eV/atom,
Tb$_{2}$Al,0.0,eV/atom,
Sm$_{2}$TeO$_{2}$,1.4223999999999997,eV/atom,
RbNO$_{3}$,3.0949999999999998,eV/atom,
Na$_{3}$P,0.40460000000000007,eV/atom,
DyNiBi,0.21359999999999957,eV/atom,
AgSe$_{5}$,0.0,eV/atom,
Ca$_{2}$Cu$_{2}$Si$_{3}$(HO$_{3}$)$_{4}$,0.5606999999999998,eV/atom,
NaY$_{3}$SiS$_{7}$,2.1984,eV/atom,
HfNi(OF)$_{6}$,0.8268999999999997,eV/atom,
KHg$_{11}$,0.0,eV/atom,
Tl$_{3}$(MoO$_{3}$)$_{10}$,0.0,eV/atom,
Na$_{2}$HgO$_{2}$,1.6474000000000002,eV/atom,
BaCaGaF$_{7}$,5.8537,eV/atom,
Tb$_{3}$CuSnS$_{7}$,1.5553,eV/atom,
MnC$_{5}$(O$_{2}$F)$_{2}$,2.5793,eV/atom,
Mg$_{2}$Al$_{4}$Si$_{5}$O$_{18}$,4.8175,eV/atom,
Ti$_{2}$PbC,0.0,eV/atom,
Dy$_{2}$Ni$_{2}$Sn,0.0,eV/atom,
SiO$_{2}$,5.5887,eV/atom,
ZnS,2.0263,eV/atom,
Zr$_{2}$InCo$_{2}$,0.0,eV/atom,
TlCu$_{7}$S$_{4}$,0.6768000000000001,eV/atom,
Yb$_{4}$MgPd,0.0,eV/atom,
RuO$_{4}$,2.4250999999999996,eV/atom,
Y$_{2}$Mo$_{2}$O$_{7}$,0.0,eV/atom,
Sr$_{3}$(GaIr)$_{4}$,0.0,eV/atom,
Y$_{3}$Ga$_{8}$Ag$_{3}$,0.0,eV/atom,
As$_{2}$O$_{3}$,1.4705000000000001,eV/atom,
SnBr$_{2}$,2.4166,eV/atom,
Ca$_{3}$Al$_{2}$(HO)$_{12}$,4.1187000000000005,eV/atom,
Ho$_{2}$(NiB$_{2}$)$_{3}$,0.0,eV/atom,
Ce$_{2}$Fe$_{17}$N$_{3}$,0.0,eV/atom,
NaP$_{4}$N$_{7}$,4.214,eV/atom,
Er$_{3}$TlC,0.0,eV/atom,
ZrAu$_{2}$,0.0,eV/atom,
Ga$_{2}$RhC$_{4}$Cl$_{7}$O$_{4}$,2.0192,eV/atom,
HfGaAu,0.0,eV/atom,
DyGaCo,0.0,eV/atom,
LiTmSiO$_{4}$,4.7791999999999994,eV/atom,
TiOs$_{2}$,0.0,eV/atom,
SbHC$_{2}$NCl$_{11}$,1.9922,eV/atom,
Ga$_{2}$Pd$_{5}$,0.0,eV/atom,
Nb$_{2}$Fe,0.0,eV/atom,
AgHgSI,1.3584,eV/atom,
Si$_{2}$P$_{2}$Pt,0.47659999999999947,eV/atom,
ThCo$_{5}$,0.0,eV/atom,
K$_{2}$Cu(Si$_{2}$O$_{5}$)$_{2}$,0.9785000000000001,eV/atom,
MgRh,0.0,eV/atom,
Ti$_{2}$Ga,0.0,eV/atom,
Rb$_{3}$Os$_{2}$Br$_{9}$,0.48730000000000007,eV/atom,
Zr$_{3}$S$_{4}$,0.0,eV/atom,
Yb(In$_{2}$Au)$_{2}$,0.0,eV/atom,
BaIn$_{2}$,0.0,eV/atom,
Cr$_{2}$Fe$_{3}$(SiO$_{4}$)$_{3}$,3.1403,eV/atom,
UTeS,0.0,eV/atom,
LuSeClO$_{3}$,4.3255,eV/atom,
SrCoO$_{3}$,0.0,eV/atom,
ThAlIr,0.0,eV/atom,
C$_{2}$(OF$_{2}$)$_{3}$,4.3593,eV/atom,
Ba$_{4}$Bi$_{3}$,0.0,eV/atom,
BaNb$_{2}$O$_{6}$,2.9040999999999997,eV/atom,
C$_{3}$N$_{4}$,2.476800000000001,eV/atom,
Ca$_{3}$TeO$_{6}$,3.2468999999999997,eV/atom,
CdAu,0.0,eV/atom,
Y$_{3}$RuI$_{3}$,0.0,eV/atom,
Ag$_{3}$CS(NO$_{2}$)$_{3}$,2.0935,eV/atom,N#CS[Ag].O=[N+]([O-])O.O=[N+]([O-])O
Ti$_{2}$InC,0.0,eV/atom,
LiMoAsO$_{6}$,2.4743,eV/atom,
LiH$_{4}$SNO$_{4}$,5.2109,eV/atom,
NbSiIr,0.0,eV/atom,
B$_{5}$H$_{4}$NO$_{10}$,0.0,eV/atom,
RbTb(PO$_{3}$)$_{4}$,5.492,eV/atom,[Rb+].[Tb+3].O=P([O-])([O-])OP(=O)([O-])OP(=O)([O-])OP(=O)(O)O
K$_{2}$SO$_{3}$,4.914899999999999,eV/atom,
Nd$_{7}$(S$_{2}$Cl$_{3}$)$_{3}$,2.2068,eV/atom,
Na$_{10}$Co$_{4}$O$_{9}$,1.3618000000000001,eV/atom,
K$_{2}$VCuS$_{4}$,1.2669,eV/atom,
Ho$_{5}$Ir$_{2}$,0.0,eV/atom,
NiPS$_{3}$,0.0,eV/atom,
Sb$_{5}$IO$_{7}$,1.2704000000000004,eV/atom,
Be$_{2}$Zn,0.0,eV/atom,
Ce(BRh)$_{4}$,0.0,eV/atom,
MgSi$_{2}$O$_{5}$,5.011099999999999,eV/atom,
PtO$_{2}$,1.5245000000000002,eV/atom,
NaAsF$_{6}$,4.9287,eV/atom,
K$_{2}$Cr$_{2}$O$_{7}$,2.7075,eV/atom,
BC$_{2}$N,1.5215999999999994,eV/atom,
SnPbF$_{4}$,3.3453999999999997,eV/atom,
KPHO$_{3}$F,5.1778,eV/atom,
Ca(BeN)$_{2}$,2.3869000000000002,eV/atom,
NbAg$_{7}$S$_{6}$,0.7723999999999998,eV/atom,
NaHSeO$_{4}$,3.4353999999999996,eV/atom,
Ba$_{3}$SiO$_{5}$,3.5354,eV/atom,
UCuAs$_{2}$,0.0,eV/atom,
In$_{3}$Bi$_{7}$(Pb$_{2}$S$_{9}$)$_{2}$,0.0,eV/atom,
Lu$_{2}$MgS$_{4}$,1.9819,eV/atom,
TiCu,0.0,eV/atom,
Sc$_{3}$RhC$_{4}$,0.0,eV/atom,
KNpCuS$_{3}$,0.0,eV/atom,
Na$_{2}$SrAl$_{4}$(SiO$_{4}$)$_{4}$,4.7044999999999995,eV/atom,
SnP$_{2}$PbO$_{8}$,3.7068,eV/atom,
ErSnPt,0.0,eV/atom,
BaEr$_{2}$ZnO$_{5}$,3.3171,eV/atom,
ZnS,2.0446999999999997,eV/atom,
As$_{2}$Ru,0.44920000000000027,eV/atom,
Nd$_{3}$SiAgS$_{7}$,1.7719999999999998,eV/atom,
Na$_{3}$Bi(PO$_{4}$)$_{2}$,4.2075,eV/atom,
KNO$_{2}$,2.4904,eV/atom,
CSe$_{2}$,2.3468,eV/atom,
SrLi$_{2}$Nb$_{2}$O$_{7}$,1.6613,eV/atom,
NaZr$_{2}$VF$_{11}$,2.1816999999999998,eV/atom,
Eu(FeP$_{3}$)$_{4}$,0.0,eV/atom,
CsMn(CN)$_{3}$,0.0,eV/atom,
K$_{2}$SrTa$_{2}$O$_{7}$,2.0693,eV/atom,
Eu(PPd)$_{2}$,0.0,eV/atom,
PuH$_{3}$,0.0,eV/atom,
NbCu$_{3}$Se$_{4}$,1.3604000000000003,eV/atom,
NdAlO$_{3}$,4.353999999999999,eV/atom,
Pr$_{2}$Ti$_{2}$O$_{7}$,2.8979999999999997,eV/atom,
Sr$_{2}$Bi$_{2}$Se$_{3}$O$_{2}$,1.2348999999999997,eV/atom,
CsV(MoO$_{4}$)$_{2}$,0.0,eV/atom,
NaSmSiO$_{4}$,4.2409,eV/atom,
BaIn$_{2}$Ir,0.0,eV/atom,
ZnAg(PO$_{3}$)$_{3}$,3.0283,eV/atom,
SnHgP$_{14}$,1.1914999999999996,eV/atom,
KNi$_{4}$(PO$_{4}$)$_{3}$,3.5552,eV/atom,
CeMg$_{12}$,0.0,eV/atom,
NdSnAu,0.0,eV/atom,
PtN$_{4}$Cl$_{2}$O,0.0,eV/atom,
NaH$_{12}$C$_{4}$S$_{2}$BrO$_{2}$,4.3026,eV/atom,
BiPO$_{4}$,2.0128000000000004,eV/atom,
Y$_{3}$Si$_{3}$O$_{10}$F,5.1402,eV/atom,
Ca$_{2}$Al$_{2}$Si$_{6}$SnO$_{22}$,0.0,eV/atom,
Sr$_{2}$Cu(BiO$_{3}$)$_{2}$,0.0,eV/atom,
HgCBr$_{3}$N,0.0,eV/atom,
Sc$_{4}$BCl$_{6}$,0.0,eV/atom,
NaCdF$_{3}$,3.513,eV/atom,
Ag$_{2}$SnO$_{3}$,0.0,eV/atom,
Ga$_{2}$HgSe$_{4}$,0.9168000000000001,eV/atom,
Ni(N$_{3}$O$_{2}$)$_{2}$,1.8343,eV/atom,
NiP$_{3}$W$_{2}$,0.0,eV/atom,
Cs$_{2}$Hg$_{3}$I$_{8}$,1.8421,eV/atom,
LiPb,0.0,eV/atom,
P$_{2}$PdO$_{6}$,1.6915999999999998,eV/atom,
RbSi$_{2}$H$_{18}$C$_{6}$N,3.1382000000000003,eV/atom,
MgF$_{2}$,5.5954999999999995,eV/atom,
U$_{2}$TlSe$_{6}$,0.0,eV/atom,
CaZn$_{11}$,0.0,eV/atom,
Cs$_{6}$Si$_{2}$NiO$_{8}$,3.0928999999999998,eV/atom,
AsSeI,1.242,eV/atom,
VPd$_{3}$,0.0,eV/atom,
LiMnAs,0.0,eV/atom,
NaZn(PO$_{3}$)$_{3}$,4.8259,eV/atom,
K$_{2}$SiAs$_{2}$,1.0021,eV/atom,
LuBi$_{2}$ClO$_{4}$,1.4617999999999998,eV/atom,
CuH$_{20}$Se$_{2}$(NO$_{7}$)$_{2}$,0.2929,eV/atom,[Cu+2].O=[Se](=O)([O-])[O-].O=[Se](=O)([O-])[O-].O.O.O.O.O.O.[NH4+].[NH4+]
H$_{5}$C$_{8}$NO$_{2}$,2.8724,eV/atom,
AlRe$_{2}$,0.0,eV/atom,
TbCuSn,0.0,eV/atom,
Ba$_{3}$InAs$_{3}$,0.5167000000000002,eV/atom,
VMoO$_{5}$,1.7997999999999998,eV/atom,
Cr(AgO$_{2}$)$_{2}$,1.3899000000000001,eV/atom,
CuSiH$_{12}$(OF)$_{6}$,0.0,eV/atom,[Cu+2].F[Si-2](F)(F)(F)(F)F.O.O.O.O.O.O
MnH$_{18}$C$_{4}$N$_{8}$(ClO)$_{4}$,3.1973,eV/atom,
AlH$_{3}$,3.2483,eV/atom,
Gd$_{6}$C$_{3}$Cl$_{5}$,0.0,eV/atom,
AlPO$_{4}$,5.4597,eV/atom,
FeCoH$_{18}$(CN$_{2}$)$_{6}$,2.287,eV/atom,
TmGe,0.0,eV/atom,
Ca$_{5}$(GaAs$_{3}$)$_{2}$,0.10360000000000014,eV/atom,
KC,0.5834,eV/atom,
NaTl$_{2}$RhF$_{6}$,1.7802999999999998,eV/atom,
TaCu$_{3}$Se$_{4}$,1.5980000000000003,eV/atom,
ZnFeC$_{5}$N$_{6}$O,0.14360000000000017,eV/atom,
La$_{4}$In$_{5}$S$_{13}$,0.0,eV/atom,
ThRh$_{2}$,0.0,eV/atom,
Zr$_{5}$Sn$_{3}$,0.0,eV/atom,
AsN$_{9}$,3.1608,eV/atom,
NaAlCl$_{4}$,5.1556999999999995,eV/atom,
Ni$_{3}$Sb,0.0,eV/atom,
HC$_{5}$N$_{3}$(OF$_{4}$)$_{2}$,4.8499,eV/atom,
KEr(PO$_{3}$)$_{4}$,5.373399999999999,eV/atom,[K+].[Er+3].O=P([O-])([O-])OP(=O)([O-])OP(=O)([O-])OP(=O)(O)O
InPd$_{3}$,0.0,eV/atom,
CdI$_{2}$,2.3952999999999998,eV/atom,
UF$_{3}$,0.24230000000000018,eV/atom,
Y$_{3}$Fe$_{29}$,0.0,eV/atom,
Ce$_{5}$Co$_{19}$,0.005700000000000038,eV/atom,
Ca$_{4}$Al$_{6}$MoO$_{16}$,3.7179999999999995,eV/atom,
Te$_{4}$Pd$_{9}$,0.004400000000000404,eV/atom,
Lu$_{5}$Ir$_{3}$,0.0,eV/atom,
NbZn$_{2}$,0.0,eV/atom,
KEu(MoO$_{4}$)$_{2}$,0,eV/atom,
ErInPt,0.0,eV/atom,
K$_{3}$Nb$_{2}$Cu$_{3}$S$_{8}$,1.8673000000000002,eV/atom,
K$_{5}$Hg$_{7}$,0.0,eV/atom,
RbH$_{3}$O$_{2}$,4.2519,eV/atom,
La$_{2}$TeI$_{2}$,0.0,eV/atom,
NaH$_{3}$(SeO$_{3}$)$_{2}$,4.2406,eV/atom,
KPr(PO$_{3}$)$_{4}$,5.3491,eV/atom,
Tl$_{2}$Cd$_{2}$(SO$_{4}$)$_{3}$,4.0064,eV/atom,
CoPtO$_{2}$,0.0,eV/atom,
ErVB$_{4}$,0.0,eV/atom,
KNa(BH$_{4}$)$_{2}$,6.1917,eV/atom,
GeS$_{2}$,2.2648,eV/atom,
VPbO$_{3}$,1.3521,eV/atom,
U$_{4}$Re$_{7}$Si$_{6}$,0.0,eV/atom,
PrClO$_{2}$,0.06209999999999999,eV/atom,
Sb$_{2}$O$_{3}$,3.3407999999999998,eV/atom,
AlOs,0.0,eV/atom,
U$_{2}$InCo$_{2}$,0.0,eV/atom,
K$_{3}$AgSn$_{3}$Se$_{8}$,1.1216000000000002,eV/atom,
NdGaO$_{3}$,0.0,eV/atom,[Nd+3].O=C([O-])C1=CC(O)=C(O)C(O)=C1.O=C([O-])C1=CC(O)=C(O)C(O)=C1.O=C([O-])C1=CC(O)=C(O)C(O)=C1
Ag$_{2}$PbO$_{2}$,1.3770000000000002,eV/atom,
Ba$_{2}$HoTaO$_{6}$,3.3781999999999996,eV/atom,
LiBeH$_{3}$,4.6434999999999995,eV/atom,
P$_{2}$O$_{5}$,4.8374,eV/atom,O=[P+3]
CaSn$_{2}$Pd,0.0,eV/atom,
K$_{2}$SmF$_{5}$,6.7046,eV/atom,
SnO,0.5353999999999992,eV/atom,
Ca$_{3}$Fe$_{2}$(SiO$_{4}$)$_{3}$,2.6134000000000004,eV/atom,
Yb$_{2}$Sn$_{2}$O$_{7}$,0.0,eV/atom,
Li$_{2}$U$_{3}$(PO$_{5}$)$_{4}$,2.1386000000000003,eV/atom,
Tb$_{2}$MoO$_{6}$,2.2285,eV/atom,
SrCuO$_{2}$,0.0,eV/atom,
NaH$_{2}$N,1.9459,eV/atom,
P$_{2}$Rh,0.37049999999999983,eV/atom,
AlCuAsO$_{5}$,0.4567999999999999,eV/atom,
Tb$_{2}$SnS$_{5}$,0.1299999999999999,eV/atom,
K$_{3}$VH$_{6}$C$_{4}$O$_{13}$,2.9186,eV/atom,
RbMnH$_{2}$OF$_{4}$,1.6821,eV/atom,
CuSb$_{2}$H$_{12}$(O$_{3}$F$_{4}$)$_{2}$,0.95,eV/atom,
EuC$_{2}$(SN)$_{2}$,0.0,eV/atom,
MgH$_{12}$SO$_{9}$,4.9641,eV/atom,
ZrCuSn,0.0,eV/atom,
BaLa$_{2}$BeO$_{5}$,3.8870000000000005,eV/atom,
HgPd,0.0,eV/atom,
CsCr$_{5}$Se$_{8}$,0.022699999999999942,eV/atom,
CrNiAs,0.0,eV/atom,
Zr$_{9}$(NiP$_{2}$)$_{2}$,0.0,eV/atom,
YScO$_{3}$,4.4324,eV/atom,
Sm$_{2}$(ReB$_{2}$)$_{3}$,0.0,eV/atom,
HfS$_{2}$,1.2322000000000002,eV/atom,
O$_{2}$,0.0,eV/atom,
NdSn$_{3}$,0.0,eV/atom,
Pd(Se$_{3}$Br)$_{2}$,1.0267999999999997,eV/atom,Cl[Pd](Cl)(=[Se])(=[Se])(=[Se])(=[Se])(=[Se])(=[Se])(=[Se])=[Se]
K$_{2}$ZnCu$_{3}$P$_{3}$O$_{12}$F,0.0,eV/atom,
La$_{2}$Te$_{4}$O$_{11}$,3.3342,eV/atom,
NiAsS,0.03979999999999961,eV/atom,
Li$_{2}$ZnBr$_{4}$,3.777,eV/atom,
Ba$_{5}$P$_{9}$,0.0,eV/atom,
La$_{4}$Si$_{4}$I$_{3}$,0.0,eV/atom,
Rb$_{2}$PtC$_{4}$(BrN$_{2}$)$_{2}$,2.0048,eV/atom,
Tl$_{4}$V$_{2}$O$_{7}$,2.6066000000000003,eV/atom,
KAlTe$_{2}$,1.8991999999999996,eV/atom,
Nb$_{5}$Si$_{3}$B,0.0,eV/atom,
NbRu$_{3}$,0.0,eV/atom,
ThBr$_{4}$,2.9258,eV/atom,
Nb$_{6}$Tl$_{2}$VCl$_{18}$,0.26080000000000014,eV/atom,
RbVSO$_{6}$,1.8148,eV/atom,
Tb$_{3}$Zn$_{11}$,0.0,eV/atom,
La$_{4}$Te$_{3}$N$_{2}$,0.8803000000000001,eV/atom,
AlPI$_{8}$,1.4267999999999998,eV/atom,I[Al-](I)(I)I.I[P+](I)(I)I
La$_{10}$Ga$_{5}$Br$_{4}$,0.0,eV/atom,
YB$_{7}$Mo$_{3}$,0.0,eV/atom,
Si$_{3}$Ru$_{5}$,0.0,eV/atom,
TbH$_{2}$ClO$_{2}$,4.795299999999999,eV/atom,
Ag$_{3}$SI,0.6203000000000003,eV/atom,
NdSe,0.0,eV/atom,
Na$_{3}$InSb$_{2}$,0.28480000000000016,eV/atom,
Ba$_{3}$Gd$_{2}$(PS$_{4}$)$_{4}$,1.4528000000000003,eV/atom,
Rb$_{4}$Te$_{2}$S$_{8}$O$_{15}$,0.0,eV/atom,
Re$_{3}$N,0.0,eV/atom,
Re$_{2}$PCl$_{13}$,0.8083,eV/atom,
Ag$_{8}$GeSe$_{6}$,0.0,eV/atom,
Nd$_{3}$Ni$_{2}$Sn$_{7}$,0.0,eV/atom,
BiIrSe,0.5951999999999993,eV/atom,
OsC,0.0,eV/atom,
Ce$_{12}$InPt$_{7}$,0.0,eV/atom,
Tl$_{5}$Se$_{2}$I,0.7101999999999995,eV/atom,
Rb$_{2}$TiO$_{3}$,3.8598,eV/atom,
Ba$_{6}$(NiO$_{3}$)$_{5}$,1.2614,eV/atom,
BaY$_{2}$Si$_{3}$O$_{10}$,4.8148,eV/atom,
Zr$_{2}$InNi$_{2}$,0.0,eV/atom,
ZrZn$_{2}$,0.0,eV/atom,
BaLiBS$_{3}$,2.1531,eV/atom,
SrZnCl$_{4}$,4.298,eV/atom,
NdAl$_{4}$Ni,0.0,eV/atom,
Fe$_{2}$MoC$_{10}$(SeO$_{5}$)$_{2}$,1.9792999999999998,eV/atom,
Be(PN$_{2}$)$_{2}$,4.0393,eV/atom,
SnS,1.8201,eV/atom,
VCo$_{2}$Si,0.0,eV/atom,
CdSO$_{4}$,3.0417,eV/atom,
Yb$_{5}$Si$_{4}$,0.0,eV/atom,
CeSb,0.0,eV/atom,
Fe$_{3}$MoC$_{11}$SeS$_{3}$O$_{11}$,2.1224,eV/atom,
Ca$_{2}$AlPd$_{2}$,0.0,eV/atom,
Ba$_{4}$PtO$_{6}$,1.8015999999999996,eV/atom,
Eu(AlGe)$_{2}$,0.0,eV/atom,
K$_{3}$SbO$_{4}$,1.8325,eV/atom,
NdCdGa,0.0,eV/atom,
YRh$_{5}$,0.0,eV/atom,
MnZn,0.0,eV/atom,
K$_{4}$Ni(NO$_{2}$)$_{6}$,2.0757,eV/atom,
SeO$_{3}$,2.4312,eV/atom,
BaCu$_{13}$,0.0,eV/atom,
TaS$_{3}$,0.0,eV/atom,
TbAlPd,0.0,eV/atom,
Sc$_{2}$MnNiO$_{6}$,1.7132,eV/atom,
KAlH$_{4}$,5.0677,eV/atom,
BaCuSF,1.6000999999999994,eV/atom,
ZrCrSi,0.0,eV/atom,
PPdSe,0.9677000000000002,eV/atom,
Sn$_{7}$Os$_{3}$,0.0,eV/atom,
LiBS$_{4}$(ClO$_{3}$)$_{4}$,4.6226,eV/atom,
LiMgAsO$_{4}$,3.4543999999999997,eV/atom,
Nd$_{2}$Fe,0.0,eV/atom,
Tb(AlAu)$_{2}$,0.0,eV/atom,
Li$_{9}$Al$_{4}$,0.0,eV/atom,
ZrI$_{2}$,0.07629999999999981,eV/atom,
NaUHOF$_{5}$,0.0,eV/atom,
TlClO$_{4}$,4.5706999999999995,eV/atom,
Sr$_{3}$GeO,0.3363999999999998,eV/atom,
DyGa$_{2}$,0.0,eV/atom,
LiNd$_{2}$IrO$_{6}$,0.0,eV/atom,
Li$_{2}$InRh,0.0,eV/atom,
K$_{2}$TaCuSe$_{4}$,1.9842000000000002,eV/atom,
Nb$_{6}$Co$_{7}$,0.0,eV/atom,
Re$_{2}$Cl$_{5}$O$_{4}$,0.7964,eV/atom,
HgCS(OF)$_{3}$,3.3526,eV/atom,
CsSn,0.7471999999999999,eV/atom,
CePRu$_{2}$C,0.0,eV/atom,
Er$_{2}$Pt,0.0,eV/atom,
Br,0.0,eV/atom,S=P(Br)(Br)Br
Nd$_{6}$S$_{4}$BrN$_{3}$,1.2748999999999997,eV/atom,
Zr$_{4}$(AlC$_{2}$)$_{3}$,0.0,eV/atom,
Th(CuSi)$_{2}$,0.0,eV/atom,
U(FeGe)$_{2}$,0.0,eV/atom,
MnH$_{6}$(OF)$_{3}$,1.5910000000000002,eV/atom,
CrNiP,0.0,eV/atom,
TmCo$_{3}$B$_{2}$,0.0,eV/atom,
Sr$_{2}$InSbO$_{6}$,1.7508999999999997,eV/atom,
Fe$_{2}$CuH$_{4}$(OF$_{4}$)$_{2}$,0.9775,eV/atom,
PtBr$_{3}$,0.9518000000000001,eV/atom,
ErTaO$_{4}$,4.0531,eV/atom,
Re$_{4}$Si$_{7}$,0.04190000000000005,eV/atom,
Eu(GeRu)$_{2}$,0.0,eV/atom,
BaCdP$_{2}$O$_{7}$,3.5826,eV/atom,
PrZn$_{2}$,0.0,eV/atom,
KCu$_{4}$Se$_{3}$,0.0,eV/atom,
Li$_{8}$Al$_{3}$Si$_{5}$,0.0,eV/atom,
Sr$_{3}$SnO,0.0,eV/atom,
VFeMoO$_{7}$,2.3613999999999997,eV/atom,
AsClF$_{8}$,3.3572,eV/atom,F[Cl+]F.F[As-](F)(F)(F)(F)F
LaInCu$_{2}$,0.0,eV/atom,
Co(BO$_{2}$)$_{2}$,2.4261999999999997,eV/atom,
Gd$_{2}$SiO$_{5}$,3.0252000000000003,eV/atom,
Li$_{3}$Nd$_{3}$(WO$_{6}$)$_{2}$,3.6605999999999996,eV/atom,
Fe$_{7}$Mo$_{6}$,0.0,eV/atom,
RbS,1.6972000000000003,eV/atom,
Er$_{2}$NiSn$_{6}$,0.0,eV/atom,
NaMgSO$_{4}$F,5.611800000000001,eV/atom,
ZnPH$_{7}$C$_{2}$N$_{4}$O$_{5}$,4.0413,eV/atom,
TmNiO$_{3}$,0.42720000000000047,eV/atom,
UCu$_{4}$Ag,0.0,eV/atom,
Ho$_{3}$CrB$_{7}$,0.0,eV/atom,
FeWClO$_{4}$,2.2868,eV/atom,
CuCSN,2.2647,eV/atom,
CsSr$_{2}$Nb$_{3}$O$_{10}$,1.4423,eV/atom,
Ba$_{2}$CaCu$_{2}$HgO$_{6}$,0.0,eV/atom,
TlHg$_{5}$Cl$_{11}$,2.7125,eV/atom,
Np,0.0,eV/atom,
Mn$_{3}$Sn,0.0,eV/atom,
K$_{2}$ZnH$_{4}$(I$_{2}$O$_{7}$)$_{2}$,3.1109999999999998,eV/atom,
Ba$_{4}$Nd$_{4}$Zn$_{3}$PtO$_{15}$,2.4838,eV/atom,
Nd$_{2}$Ti$_{2}$O$_{7}$,2.7396999999999996,eV/atom,
Eu$_{3}$P$_{4}$,0.0,eV/atom,
K$_{9}$Sm$_{3}$Si$_{12}$(O$_{16}$F)$_{2}$,4.5766,eV/atom,
Ca$_{14}$GaAs$_{11}$,0.5969000000000002,eV/atom,
Ni$_{3}$(PbS)$_{2}$,0.0,eV/atom,
Sm(SiPt)$_{2}$,0.0,eV/atom,
Rb$_{2}$CoP$_{4}$(HO$_{2}$)$_{8}$,3.2758000000000003,eV/atom,[Co+2].[Rb+].[Rb+].O=P([O-])(O)O.O=P([O-])(O)O.O=P([O-])(O)O.O=P([O-])(O)O
MnSnF$_{6}$,2.4057999999999997,eV/atom,
Fe$_{2}$Cu(P$_{2}$O$_{7}$)$_{2}$,0.7737,eV/atom,
GdPd$_{3}$,0.0,eV/atom,
CaTiO$_{3}$,2.3238,eV/atom,
ErGe,0.0,eV/atom,
YbIn$_{2}$Pd,0.0,eV/atom,
Rb$_{15}$Hg$_{16}$,0.0,eV/atom,
Ca$_{4}$Al$_{6}$O$_{13}$,3.6188000000000002,eV/atom,
Tb$_{8}$CrTe$_{13}$Cl,0.08360000000000056,eV/atom,
CrHO$_{2}$,2.9692,eV/atom,
BaCdBi$_{2}$,0.0,eV/atom,