formula,Property band_gap,Property band_gap units,Property SMILES
NbTe$_{4}$,0.0,eV/atom,
Ba$_{3}$NiSb$_{2}$O$_{9}$,2.3423000000000003,eV/atom,
K$_{3}$CaP$_{2}$HO$_{8}$,4.9617,eV/atom,
Ca$_{2}$SiO$_{4}$,4.3558,eV/atom,
ZnH$_{12}$C$_{3}$S$_{4}$(N$_{3}$O$_{2}$)$_{2}$,4.0889999999999995,eV/atom,
KTa(AgSe$_{2}$)$_{2}$,1.7478,eV/atom,
MgNi$_{3}$B$_{2}$,0.0,eV/atom,
PAuCl$_{8}$,1.3333,eV/atom,
BaCoF$_{4}$,2.9911,eV/atom,
K$_{3}$(MoO$_{3}$)$_{10}$,0.0,eV/atom,
Er$_{4}$Si$_{3}$O$_{11}$F$_{2}$,5.0561,eV/atom,
Yb$_{3}$Zn$_{11}$,0.0,eV/atom,
Nb$_{3}$Ni,0.0,eV/atom,
Hg$_{3}$ClO,1.1735,eV/atom,
Ba$_{2}$V$_{4}$Cd$_{3}$O$_{15}$,2.8927,eV/atom,
C,0.0945999999999998,eV/atom,
LuPd$_{3}$,0.0,eV/atom,
Ti$_{3}$In,0.0,eV/atom,
AlAs(H$_{2}$O$_{3}$)$_{2}$,3.6411999999999995,eV/atom,
NdAg$_{2}$,0.0,eV/atom,
RbYbI$_{3}$,3.6052999999999997,eV/atom,
K$_{3}$Co$_{2}$F$_{7}$,2.3726000000000003,eV/atom,
K$_{2}$Al$_{2}$Si$_{3}$O$_{10}$,4.3747,eV/atom,
AlMo$_{3}$,0.0,eV/atom,
GdGa$_{2}$Co,0.0,eV/atom,
BH$_{8}$CN,6.158,eV/atom,
Cu$_{2}$AsClO$_{4}$,0.0,eV/atom,
Ho$_{2}$Ti$_{2}$O$_{7}$,2.7086,eV/atom,
Nb$_{3}$Ga,0.0,eV/atom,
Ce$_{2}$SiSeO$_{4}$,0.0,eV/atom,
KScBP$_{2}$HO$_{9}$,4.8467,eV/atom,
K$_{2}$MoO$_{4}$,4.3131,eV/atom,
BaSnF$_{6}$,4.9883,eV/atom,
MnH$_{6}$(SO$_{4}$)$_{4}$,5.099500000000001,eV/atom,
Ag$_{3}$Sn,0.0,eV/atom,
K$_{5}$H$_{3}$S$_{5}$O$_{14}$,3.6559,eV/atom,
NiH$_{14}$C$_{3}$NCl$_{3}$O$_{2}$,3.4911,eV/atom,
SrHg$_{2}$,0.0,eV/atom,
K$_{2}$UTe$_{3}$,0.009300000000000086,eV/atom,
Gd(PO$_{3}$)$_{3}$,2.9356,eV/atom,
Pt(I$_{2}$O)$_{2}$,0.0,eV/atom,I[Pt](I)(I)I.O.O
InCuO$_{2}$,0.24040000000000017,eV/atom,
CdI$_{2}$,2.3414,eV/atom,
LiTl,0.0,eV/atom,
BaRe$_{2}$H$_{12}$C$_{3}$N$_{6}$O$_{11}$,2.9466,eV/atom,
Ta$_{5}$Si$_{3}$,0.0,eV/atom,
Na$_{3}$Ca$_{3}$AlAs$_{4}$,0.9449000000000001,eV/atom,
NaZnPO$_{4}$,3.854,eV/atom,
Er$_{2}$Zn$_{17}$,0.0,eV/atom,
K(RuO$_{2}$)$_{4}$,0.0,eV/atom,
SiO$_{2}$,4.3008,eV/atom,
S$_{3}$N$_{2}$O$_{5}$,2.7323,eV/atom,
SrZrSe$_{3}$,0.16800000000000015,eV/atom,
Ta$_{2}$S,0.0,eV/atom,
Rb$_{4}$Ge$_{3}$B$_{6}$O$_{17}$,3.8545999999999996,eV/atom,
Na$_{2}$Li$_{3}$CoO$_{4}$,1.4597,eV/atom,
Ta$_{3}$SeI$_{7}$,0.5727000000000002,eV/atom,
Ti(CoGe)$_{6}$,0.0,eV/atom,
Mn$_{3}$Cd$_{2}$O$_{8}$,1.1042999999999998,eV/atom,
CO$_{2}$,6.5851,eV/atom,O=C=O
GdH$_{2}$,0.0,eV/atom,
Mn$_{6}$Si$_{7}$Ni$_{16}$,0.0,eV/atom,
ErNiGe$_{3}$,0.0,eV/atom,
SmSnPt,0.0,eV/atom,
LiCu$_{2}$Sn,0.0,eV/atom,
LiGe,0.0,eV/atom,
Sc$_{2}$Te$_{3}$,0.0,eV/atom,
RbGeBr$_{3}$,1.9935,eV/atom,
PRuSe,0.21969999999999956,eV/atom,
ThP$_{2}$,0.0,eV/atom,
TbC$_{2}$,0.0,eV/atom,
Sb$_{3}$ClO$_{4}$,2.6768000000000005,eV/atom,
LaTmS$_{3}$,0.8731,eV/atom,
Ca$_{2}$H$_{2}$S$_{2}$O$_{9}$,5.1689,eV/atom,
Pu$_{3}$Pd$_{4}$,0.0016999999999995907,eV/atom,
Ag$_{2}$CSNClO$_{4}$,2.5328999999999997,eV/atom,
LiIO$_{3}$,3.5575,eV/atom,
Be$_{3}$Fe$_{4}$Si$_{3}$SeO$_{12}$,3.1008000000000004,eV/atom,
TeI$_{7}$,0.0,eV/atom,[I-].[I-].[I-].O=[Te](=O)([O-])I.O=[Te](=O)([O-])I.O=[Te](=O)([O-])I.O=[Te](=O)([O-])I.C[NH+](C)C.C[NH+](C)C
Y$_{6}$Te$_{2}$Pd,0.0,eV/atom,
KVSO$_{6}$,1.8687,eV/atom,
La$_{3}$AsI$_{3}$,0.0,eV/atom,
TbCl$_{2}$F,4.8595999999999995,eV/atom,
Nd$_{2}$Co$_{12}$P$_{7}$,0.0,eV/atom,
Fe$_{15}$(Ge$_{2}$O$_{9}$)$_{4}$,0.006999999999999673,eV/atom,
TmBO$_{3}$,2.3564,eV/atom,
ZnPH$_{3}$O$_{5}$,4.088,eV/atom,[Zn+2].O=P([O-])([O-])O.O
NaLiCO$_{3}$,0.0,eV/atom,
Te$_{2}$Pt,0.0,eV/atom,
Ba(SbSe$_{2}$)$_{2}$,0.9964999999999997,eV/atom,
KNaH$_{6}$PtC$_{4}$N$_{4}$O$_{3}$,1.3944,eV/atom,
K$_{2}$CN$_{2}$,3.2015000000000002,eV/atom,
Nb$_{5}$PbSe$_{8}$,0.0,eV/atom,
TaO,0.0,eV/atom,
CaTiO$_{3}$,1.8283,eV/atom,
NaCaSiO$_{4}$,0.08589999999999987,eV/atom,
LaAs,0.0,eV/atom,
YbSe$_{2}$,0.0,eV/atom,
PH$_{9}$C(NO)$_{4}$,5.0103,eV/atom,
S$_{8}$O,2.4234999999999998,eV/atom,
Pu$_{5}$Ir$_{3}$,0.0,eV/atom,
OsC$_{2}$,0.0,eV/atom,
Yb$_{2}$In$_{8}$Ir,0.0,eV/atom,
LiAlSiO$_{4}$,4.8474,eV/atom,
MnP$_{2}$HO$_{7}$,1.6707999999999998,eV/atom,
YbAgBi,0.0,eV/atom,
H$_{10}$C$_{3}$NClO,5.3104000000000005,eV/atom,Cl.[O-][N+](C)(C)C
Nd$_{5}$As$_{2}$ClO$_{10}$,3.2958000000000003,eV/atom,
SiO$_{2}$,5.265300000000001,eV/atom,
Sm(CuGe)$_{2}$,0.0,eV/atom,
PdN$_{2}$,0.0,eV/atom,
TlGaI$_{4}$,2.5666,eV/atom,
Yb$_{3}$SnO,0.0,eV/atom,
Rb$_{2}$TeCl$_{6}$,2.6399999999999997,eV/atom,
BaTb$_{2}$O$_{4}$,3.2026,eV/atom,
Rb$_{2}$Cr$_{2}$O$_{7}$,2.7126,eV/atom,
Tl$_{2}$Cr$_{3}$O$_{12}$,1.7286000000000001,eV/atom,
EuCd(BO$_{2}$)$_{5}$,0.0,eV/atom,
YbAgGe,0.0,eV/atom,
Sr(CoAs)$_{2}$,0.0,eV/atom,
Ca$_{3}$Cu$_{5}$Si$_{9}$O$_{26}$,0.0,eV/atom,
Zr(CoSi)$_{2}$,0.0,eV/atom,
Yb$_{2}$SeO$_{2}$,0.0,eV/atom,
H$_{3}$Ru$_{3}$C$_{10}$ClO$_{9}$,2.4491,eV/atom,
CsTmS$_{2}$,2.1573,eV/atom,
PH$_{10}$C$_{3}$N$_{2}$O$_{4}$F,5.1415,eV/atom,
EuIn,0.0,eV/atom,
Na$_{6}$Ge$_{2}$S$_{7}$,2.4264,eV/atom,
Tm$_{3}$Ga$_{8}$Ir$_{3}$,0.0,eV/atom,
Mn$_{3}$Al,0.0,eV/atom,
Cs$_{2}$CoSiO$_{4}$,2.7201000000000004,eV/atom,
CuP$_{2}$(HO)$_{4}$,0.6392,eV/atom,
Y$_{21}$B$_{7}$(C$_{7}$I$_{9}$)$_{2}$,0.0,eV/atom,
Cs$_{3}$Li$_{2}$F$_{5}$,5.9268,eV/atom,
CdI$_{2}$,2.3453999999999997,eV/atom,
Ti$_{2}$P$_{2}$H$_{4}$O$_{11}$,2.7606,eV/atom,
Ba$_{3}$Ta$_{2}$NiO$_{9}$,3.3673,eV/atom,
ZrHg,0.0,eV/atom,
CuPH$_{6}$NO$_{5}$,0.7670999999999999,eV/atom,
HoAlPt,0.0,eV/atom,
Na$_{2}$SeO$_{3}$,4.2235,eV/atom,
Bi$_{2}$Te$_{2}$W$_{3}$O$_{16}$,3.0739,eV/atom,
Co$_{2}$Si$_{3}$,0.0,eV/atom,
K$_{2}$H$_{2}$RhCl$_{5}$O,0.5501,eV/atom,
Sr$_{2}$DySbO$_{6}$,3.6563,eV/atom,
CsAsSe$_{2}$,1.5081000000000002,eV/atom,
Li$_{2}$FeS$_{2}$,0.0,eV/atom,
CdI$_{2}$,2.3356,eV/atom,
Yb(CoGe)$_{6}$,0.0,eV/atom,
NdTlCd,0.0,eV/atom,
EuMoO$_{4}$,0.021300000000000097,eV/atom,
Li$_{2}$ZrF$_{6}$,5.481199999999999,eV/atom,
K$_{3}$EuV$_{2}$O$_{8}$,0.0,eV/atom,
NaFe$_{3}$Si$_{3}$O$_{10}$,1.3599,eV/atom,
MnO,0.0,eV/atom,
Dy$_{3}$CuGeS$_{7}$,1.8098,eV/atom,
TbWClO$_{4}$,3.4878,eV/atom,
La$_{3}$Ni$_{2}$B$_{2}$N$_{3}$,0.0,eV/atom,
SmRhC$_{2}$,0.0,eV/atom,
K$_{2}$CuP,1.1421000000000001,eV/atom,
ZrCu,0.0,eV/atom,
AgClO$_{3}$,2.3879,eV/atom,
EuBi$_{2}$BrO$_{4}$,0.0,eV/atom,
LiIr,0.014499999999999957,eV/atom,
CeAlPt,0.0,eV/atom,
CdSb,0.34550000000000036,eV/atom,
Mg$_{2}$Te$_{3}$O$_{8}$,3.4615000000000005,eV/atom,
Na$_{4}$CO$_{4}$,1.6256999999999997,eV/atom,
AgBTe$_{4}$C(OF$_{4}$)$_{5}$,2.5132000000000003,eV/atom,
Fe$_{2}$Ag(MoO$_{4}$)$_{3}$,1.1415000000000002,eV/atom,
LaSe$_{2}$,0.2386999999999997,eV/atom,
Y$_{2}$S$_{2}$O,2.5515000000000003,eV/atom,
CdSnAs$_{2}$,0.02210000000000001,eV/atom,
CaP(H$_{2}$O$_{3}$)$_{2}$,0.049199999999999966,eV/atom,
K$_{2}$Mg$_{3}$P$_{4}$(H$_{5}$O$_{6}$)$_{4}$,4.986,eV/atom,
Pr$_{2}$In,0.0,eV/atom,
RhN$_{3}$,0.0,eV/atom,
V$_{3}$Pb,0.0,eV/atom,
Mg$_{3}$P$_{2}$(HO)$_{16}$,5.0338,eV/atom,
RbNa$_{2}$Ge$_{17}$,0,eV/atom,
Ho$_{2}$O$_{3}$,4.0554,eV/atom,
Co$_{2}$H$_{21}$I$_{7}$(N$_{2}$O)$_{3}$,0.06940000000000002,eV/atom,
Nd$_{2}$NiO$_{4}$,1.7465000000000002,eV/atom,
Na$_{2}$ZrSi$_{4}$O$_{11}$,4.5766,eV/atom,
Sr$_{4}$RhO$_{6}$,0.0,eV/atom,
Li$_{10}$BrN$_{3}$,1.3667,eV/atom,
NdSeF,0.9158,eV/atom,
TlInS$_{2}$,1.5392999999999994,eV/atom,
Cs$_{2}$As$_{2}$Pd,0.9487999999999999,eV/atom,
Ba$_{2}$PrSbO$_{6}$,3.771,eV/atom,
HfCo$_{3}$B$_{2}$,0.0,eV/atom,
Rb$_{2}$BaPt$_{2}$(CN)$_{8}$,1.6897,eV/atom,
CsKPt$_{6}$(S$_{3}$O$_{14}$)$_{2}$,1.0952,eV/atom,
Er$_{2}$CuGe$_{6}$,0.0,eV/atom,
K$_{2}$PtN$_{3}$(ClO$_{2}$)$_{3}$,2.7094,eV/atom,
EuCuP,0.01949999999999985,eV/atom,
Nd$_{4}$Ga$_{2}$S$_{5}$O$_{4}$,2.8838000000000004,eV/atom,
CrCo$_{3}$H$_{24}$C$_{6}$(N$_{10}$O$_{11}$)$_{3}$,0.5816,eV/atom,
KCaPO$_{5}$,0.0769,eV/atom,
Pr$_{3}$SbO$_{7}$,2.7215,eV/atom,
SrZnH$_{6}$O$_{5}$,3.6372,eV/atom,
PrSn$_{2}$,0.0,eV/atom,
SrMg$_{2}$FeH$_{8}$,1.7242999999999997,eV/atom,
Ba$_{3}$V$_{2}$(PO$_{5}$)$_{3}$,1.6044999999999998,eV/atom,
Sr(HO)$_{2}$,4.0304,eV/atom,
Al$_{2}$Fe$_{3}$(SiO$_{4}$)$_{3}$,3.641399999999999,eV/atom,
SiH$_{8}$,6.98,eV/atom,
SrSn$_{3}$,0.0,eV/atom,
ZrMoP,0.0,eV/atom,
Sr$_{3}$TbRhO$_{6}$,2.1142,eV/atom,
CsSe,0.0,eV/atom,
Zr(MoO$_{4}$)$_{2}$,3.1151999999999997,eV/atom,
Tb$_{2}$InCu$_{2}$,0.0,eV/atom,
Y$_{4}$Al$_{2}$O$_{9}$,4.3268,eV/atom,
Y$_{3}$Al$_{19}$Ni$_{5}$,0.0,eV/atom,
DyAg,0.0,eV/atom,
In$_{2}$Au,0.0,eV/atom,
LaZnPd,0.0,eV/atom,
Tl$_{4}$SnS$_{4}$,1.7518999999999996,eV/atom,
Cu$_{6}$PS$_{5}$Br,0.8183999999999996,eV/atom,
SmAgAs$_{2}$,0.0,eV/atom,
NCl$_{3}$,2.1636,eV/atom,ClN(Cl)Cl
CsGaP$_{3}$HO$_{10}$,4.6041,eV/atom,
PrMgSn,0.0,eV/atom,
Sr$_{3}$Fe$_{2}$Cl$_{2}$O$_{5}$,1.0836999999999999,eV/atom,
Mg,0.0,eV/atom,
HfGe$_{2}$Rh,0.0,eV/atom,
SmCuSn,0.0,eV/atom,
Er$_{2}$AlNi$_{2}$,0.0,eV/atom,
TmTiGe,0.0,eV/atom,
Hg$_{6}$S$_{4}$IBr$_{2}$Cl,1.4271,eV/atom,
LaH$_{3}$(CO$_{2}$)$_{3}$,4.0564,eV/atom,[La+3].[H]C(=O)[O-].[H]C(=O)[O-].[H]C(=O)[O-]
Pa$_{3}$As$_{4}$,0.0,eV/atom,
K$_{2}$NdP$_{2}$S$_{7}$,2.3533,eV/atom,
NdAgSn,0.0,eV/atom,
K$_{2}$HgC$_{2}$S$_{2}$(BrN)$_{2}$,2.3991,eV/atom,
Ce$_{7}$Ru$_{3}$,0.0,eV/atom,
Pu(MnSi)$_{2}$,0.0,eV/atom,
La$_{4}$Ni$_{3}$O$_{8}$,0.0,eV/atom,
Ni$_{5}$Ge$_{3}$,0.0,eV/atom,
Sr$_{3}$PbO,0.0,eV/atom,
Na$_{2}$ZnGaF$_{7}$,3.9775,eV/atom,
In$_{2}$CuSe$_{4}$,0.0,eV/atom,
LaSnPt,0.0,eV/atom,
LuH$_{24}$C$_{4}$N$_{4}$Cl$_{7}$,4.8904,eV/atom,
Tb$_{3}$Mn$_{3}$Ga$_{2}$Si,0.0,eV/atom,
CuPH$_{6}$NO$_{5}$,0.0,eV/atom,
BCl$_{3}$,4.7135,eV/atom,
Er(MnGe)$_{6}$,0.0,eV/atom,
K$_{3}$Pr$_{2}$(NO$_{3}$)$_{9}$,3.4494000000000002,eV/atom,
Tb$_{2}$CuGe$_{6}$,0.0,eV/atom,
Np(SiAu)$_{2}$,0.0,eV/atom,
Pr$_{12}$C$_{6}$I$_{17}$,0.0,eV/atom,
Na$_{2}$P$_{2}$PbO$_{7}$,4.2885,eV/atom,
Eu$_{2}$Ge$_{2}$O$_{7}$,0.0,eV/atom,
YTl$_{5}$Cu$_{2}$(NO$_{2}$)$_{12}$,0.0,eV/atom,
NOF,3.1441,eV/atom,O=NF
Ho(IO$_{3}$)$_{3}$,3.3100000000000005,eV/atom,
Sr$_{2}$ErRuO$_{6}$,0.0,eV/atom,
LaAsIr,0.0,eV/atom,
ThSe,0.0,eV/atom,
Lu$_{2}$Fe$_{3}$Si$_{5}$,0.0,eV/atom,
Gd$_{2}$B$_{5}$,0.0,eV/atom,
Li$_{2}$In,0.0,eV/atom,
Cu(ClO)$_{2}$,0.0,eV/atom,
PtPbF$_{6}$,1.9710999999999999,eV/atom,
Y$_{3}$Ge$_{4}$,0.0,eV/atom,
GePd,0.0,eV/atom,
Ag$_{2}$Hg$_{7}$(As$_{2}$I$_{3}$)$_{2}$,0.6387999999999998,eV/atom,
KZrP$_{2}$HO$_{8}$,4.1955,eV/atom,
LiSiNO,5.2543999999999995,eV/atom,
SnPS$_{3}$,1.8210000000000002,eV/atom,
Ca(AlCl$_{4}$)$_{2}$,5.4214,eV/atom,
PrPIr,0.0,eV/atom,
La(FeSi)$_{2}$,0.0,eV/atom,
CeZn$_{3}$Cu$_{2}$,0.0,eV/atom,
Ce$_{3}$AlN,0.0,eV/atom,
H$_{5}$BrNO,4.3535,eV/atom,
Hf$_{9}$Mo$_{4}$As,0.0,eV/atom,
NaV$_{6}$O$_{11}$,0.8658999999999999,eV/atom,
La$_{2}$NiO$_{4}$,0.8102999999999998,eV/atom,
RbH$_{2}$N,1.8985,eV/atom,
Rb$_{4}$Hg$_{5}$Te$_{13}$,0.6505000000000001,eV/atom,
Cs$_{4}$Ti$_{3}$S$_{14}$,1.2939999999999996,eV/atom,
LaSi$_{2}$,0.0,eV/atom,
Ag(Mo$_{3}$Se$_{4}$)$_{2}$,0.0,eV/atom,
Ba$_{3}$Ho(BO$_{3}$)$_{3}$,3.8221,eV/atom,
CsSi$_{2}$SbO$_{7}$,3.2270999999999996,eV/atom,
K$_{7}$TaAs$_{4}$,1.0407000000000002,eV/atom,
P$_{4}$SO$_{6}$,3.6742,eV/atom,
IrPb,0.0,eV/atom,
Rb$_{2}$NaBiF$_{6}$,4.9249,eV/atom,
CaTa$_{2}$Bi$_{2}$O$_{9}$,0.16640000000000033,eV/atom,
NbB$_{2}$,0.0,eV/atom,
PuAl$_{4}$,0.0,eV/atom,
V$_{3}$Pt,0.0,eV/atom,
Hf$_{2}$InPd$_{2}$,0.0,eV/atom,
Np$_{3}$S$_{5}$,0.0,eV/atom,
SmSiAg,0.0,eV/atom,
ZrS$_{4}$(N$_{2}$Cl$_{3}$)$_{2}$,1.5324,eV/atom,
P$_{4}$N$_{6}$O,4.3472,eV/atom,
Na$_{2}$CrFeF$_{7}$,2.0232,eV/atom,
Sr$_{2}$Cu$_{2}$O$_{5}$,0.0,eV/atom,
Y$_{3}$CuSiS$_{7}$,1.7418999999999993,eV/atom,
Mo$_{3}$Ir,0.0,eV/atom,
Cs$_{2}$SnCl$_{6}$,2.59,eV/atom,
P$_{3}$IrO$_{9}$,2.2408,eV/atom,
Nb$_{2}$(PO$_{4}$)$_{3}$,0.0,eV/atom,
Ba$_{3}$(PS$_{4}$)$_{2}$,2.1538,eV/atom,
SrBiAu,0.0,eV/atom,
ErAl$_{3}$(BO$_{3}$)$_{4}$,5.6744,eV/atom,
YbTe,1.4687999999999999,eV/atom,
Dy$_{3}$Pt$_{4}$,0.0,eV/atom,
Rb$_{2}$CoI$_{4}$,0.5542,eV/atom,
SbPS$_{4}$,2.0791,eV/atom,
Na$_{2}$H$_{4}$RuC$_{5}$(N$_{2}$O)$_{3}$,2.3134,eV/atom,
NaFeF$_{3}$,3.1338,eV/atom,
SnS,0.3127000000000004,eV/atom,
PrNb$_{3}$O$_{9}$,2.8484999999999996,eV/atom,
La$_{3}$Rh$_{2}$,0.0,eV/atom,
B$_{6}$H$_{10}$N,5.657500000000001,eV/atom,
Os$_{2}$C$_{6}$SeO$_{6}$,1.8468,eV/atom,
CaGa$_{4}$O$_{7}$,2.5336,eV/atom,
Y$_{3}$Ni$_{13}$B$_{2}$,0.0,eV/atom,
GeO$_{2}$,3.2779,eV/atom,
MgSe,2.5476,eV/atom,
Ba$_{2}$Cu$_{3}$(BrO$_{2}$)$_{2}$,0.0,eV/atom,
Cs$_{2}$NiH$_{12}$(SO$_{7}$)$_{2}$,4.1137,eV/atom,
Sr$_{2}$VFeAsO$_{3}$,0.0,eV/atom,
Lu$_{5}$Re$_{2}$C$_{7}$,0.0,eV/atom,
Na$_{3}$Fe$_{2}$(AsO$_{4}$)$_{3}$,2.1856999999999998,eV/atom,
LiAl(PO$_{3}$)$_{4}$,5.7440999999999995,eV/atom,
H$_{13}$S$_{2}$N$_{3}$O$_{8}$,5.124,eV/atom,
KC(NO$_{2}$)$_{2}$,1.9925,eV/atom,
Y$_{5}$S$_{7}$,0.0,eV/atom,
Li$_{6}$Cu(B$_{2}$O$_{5}$)$_{2}$,0.7482,eV/atom,
Al$_{2}$O$_{3}$,4.8274,eV/atom,
SiO$_{2}$,0.9566000000000001,eV/atom,
Li$_{3}$BiO$_{3}$,2.4379,eV/atom,
YCd$_{3}$,0.0,eV/atom,
ZrH$_{11}$C$_{4}$NOF$_{5}$,0.17710000000000004,eV/atom,
La$_{2}$InNi$_{2}$,0.0,eV/atom,
KAgSe,0.4838,eV/atom,
SbRh$_{2}$,0.0,eV/atom,
CsV(SO$_{4}$)$_{2}$,2.0301,eV/atom,
NdSb$_{2}$Au,0.0,eV/atom,
V$_{2}$PO$_{5}$,0.0,eV/atom,
Sr(CuSb)$_{2}$,0.0,eV/atom,
U$_{2}$Ta$_{6}$O$_{19}$,0.0,eV/atom,
LiB(HO$_{2}$)$_{2}$,3.5543,eV/atom,
Sn(NCl$_{3}$)$_{2}$,0.0,eV/atom,
Tb$_{5}$(MoO$_{6}$)$_{2}$,0.0,eV/atom,
CrSi$_{2}$,0.36439999999999984,eV/atom,
LuNiGe$_{2}$,0.0,eV/atom,
YIr$_{3}$,0.0,eV/atom,
Ba$_{16}$Nb$_{5}$N$_{19}$,1.6979000000000002,eV/atom,
EuPd$_{3}$S$_{4}$,0.0,eV/atom,
Rb$_{6}$U$_{5}$V$_{2}$O$_{23}$,1.7618999999999998,eV/atom,
Fe$_{7}$S$_{8}$,0.022800000000000153,eV/atom,
Na$_{2}$CdSn,0.0,eV/atom,
KSbF$_{4}$,4.4258,eV/atom,
Sr(BrO$_{3}$)$_{2}$,0.8446999999999998,eV/atom,
HfSi$_{2}$,0.0,eV/atom,
Cu(BrN$_{3}$)$_{2}$,0.0,eV/atom,
Dy$_{2}$Co$_{17}$,0.0,eV/atom,
Cs$_{4}$PbBr$_{6}$,3.8959,eV/atom,
TaTl$_{3}$S$_{4}$,2.5325,eV/atom,
LiAlPHO$_{5}$,5.728999999999999,eV/atom,
LaBiSe$_{2}$O,0.9102000000000006,eV/atom,
Sc$_{2}$CdS$_{4}$,0.9581,eV/atom,
Ca$_{3}$(GaPt)$_{2}$,0.0,eV/atom,
Nb$_{4}$FeSi,0.01890000000000036,eV/atom,
CaBiClO$_{2}$,3.6207000000000003,eV/atom,
LiGaO$_{2}$,3.1981,eV/atom,[Li+].O=C([O-])C1=CC(O)=C(O)C(O)=C1
TlCrP$_{2}$O$_{7}$,2.791,eV/atom,
Cd(PtO$_{2}$)$_{3}$,0.2256999999999998,eV/atom,
Sr(BiPd)$_{2}$,0.0,eV/atom,
Dy$_{3}$Ni$_{7}$B$_{2}$,0.0,eV/atom,
TiNiGe,0.0,eV/atom,
NaNd(Si$_{3}$O$_{7}$)$_{2}$,4.7954,eV/atom,
K$_{3}$GdSi$_{2}$O$_{7}$,3.1418999999999997,eV/atom,
Na$_{2}$Ca$_{2}$Ta$_{3}$O$_{10}$,0.0,eV/atom,
EuPO$_{4}$,0.0,eV/atom,
PRh$_{2}$,0.0,eV/atom,
BCl$_{2}$,2.9181,eV/atom,
MnO$_{3}$,0.0,eV/atom,
CrH$_{9}$(CN$_{2}$)$_{3}$,1.9983,eV/atom,
Na$_{2}$Ge$_{2}$Se$_{5}$,1.5615,eV/atom,
Na$_{3}$Nd$_{14}$(RuO$_{6}$)$_{6}$,0.0,eV/atom,
Rb$_{2}$NiF$_{6}$,2.4215999999999998,eV/atom,
SbTe$_{6}$H$_{12}$C$_{4}$N(OF$_{5}$)$_{6}$,2.5999,eV/atom,
Ba(PdS$_{2}$)$_{2}$,0.8922000000000003,eV/atom,
TlCo(CO)$_{4}$,3.0826,eV/atom,
LiAlSe$_{2}$,3.0233,eV/atom,
MnH$_{2}$(CO$_{2}$)$_{2}$,3.4661,eV/atom,
KCuSe,0.17819999999999991,eV/atom,
SnS$_{16}$(Cl$_{2}$O)$_{2}$,2.0385,eV/atom,
Sm$_{2}$Co$_{7}$,0.0,eV/atom,
ZrAg$_{2}$,0.001300000000000523,eV/atom,
KMoCl$_{4}$O,2.8030999999999997,eV/atom,
AgH$_{11}$C$_{4}$(SO)$_{3}$,3.4244,eV/atom,[Ag+].[Ag+].O=S(=O)([O-])C.O=S(=O)([O-])C.S(C)CSC
Sr$_{5}$Re$_{3}$ClO$_{15}$,2.3364000000000003,eV/atom,
Nb$_{12}$O$_{29}$,0,eV/atom,
KLaSiS$_{4}$,2.6881,eV/atom,
Ce(CuSi)$_{2}$,0.0,eV/atom,
K$_{4}$CdP$_{2}$,0.8246,eV/atom,
ScAgSe$_{2}$,0.6802000000000001,eV/atom,
FeH$_{4}$Br$_{3}$N,0.0,eV/atom,
U$_{6}$Fe$_{16}$Si$_{7}$,0.0,eV/atom,
TlP$_{5}$,1.1813000000000002,eV/atom,
NdGeBO$_{5}$,3.9922,eV/atom,
LiSnS$_{2}$,0.0,eV/atom,
Mo$_{3}$S$_{3}$Br,0.08279999999999976,eV/atom,
Fe$_{2}$Si,0.0,eV/atom,
Cs$_{2}$U$_{3}$(TeO$_{7}$)$_{2}$,1.8529,eV/atom,
NaSbS$_{2}$,0.8815999999999997,eV/atom,
SiO$_{2}$,5.3664000000000005,eV/atom,
TeAuCl$_{7}$,1.5352999999999999,eV/atom,
ErFe$_{2}$,0.0,eV/atom,
Na$_{2}$AlSi$_{3}$HO$_{9}$,4.6627,eV/atom,
Ba(ErTe$_{2}$)$_{2}$,0.7848999999999995,eV/atom,
K$_{2}$Zn$_{2}$(SO$_{4}$)$_{3}$,4.3495,eV/atom,
SmSi$_{2}$,0.0,eV/atom,
LiFePO$_{4}$,3.6715,eV/atom,
KPrSiSe$_{4}$,2.1773,eV/atom,
H$_{7}$NF$_{4}$,7.2568,eV/atom,
UTeN,0.0,eV/atom,
K$_{8}$Hf(MoO$_{4}$)$_{6}$,4.0496,eV/atom,
AlP$_{2}$I$_{9}$,1.6553,eV/atom,
NaNd(SO$_{4}$)$_{2}$,5.5386,eV/atom,
MnFeCoGe,0.0,eV/atom,
LiNi$_{2}$Sn,0.0,eV/atom,
B$_{10}$H$_{13}$CSN,2.9249,eV/atom,
CrCo,0.0,eV/atom,
Ho$_{3}$Ge$_{4}$,0.0,eV/atom,
HfNiP,0.0,eV/atom,
Ce$_{10}$Ga$_{5}$Br$_{4}$,0.0,eV/atom,
Dy$_{2}$Al$_{3}$Fe$_{14}$,0.0,eV/atom,
KCeSiS$_{4}$,0.002500000000000391,eV/atom,
Na$_{2}$Zn$_{3}$(SiO$_{4}$)$_{2}$,2.7950999999999997,eV/atom,
Rh$_{2}$S$_{3}$,0.19459999999999944,eV/atom,
KNi$_{3}$As$_{3}$O$_{11}$,2.5343999999999998,eV/atom,
Nd$_{4}$Cu$_{2}$O$_{7}$,1.6683,eV/atom,
CuNi$_{2}$Sb,0.0,eV/atom,
Mn$_{2}$Fe$_{3}$Sn$_{2}$(CO)$_{19}$,1.8867,eV/atom,
Sr$_{2}$UCu$_{2}$S$_{5}$,0.057899999999999174,eV/atom,
BaYb$_{2}$NiO$_{5}$,0.057399999999999896,eV/atom,
NaInAs$_{2}$O$_{7}$,2.3176,eV/atom,
Th$_{2}$Ag,0.0,eV/atom,
Nd(SiNi)$_{2}$,0.0,eV/atom,
As$_{4}$BrNO$_{6}$,0.0,eV/atom,
Ce$_{8}$C$_{8}$Cl$_{5}$,0.0,eV/atom,
Pr$_{2}$Si$_{2}$O$_{7}$,5.1705,eV/atom,
Mg(FeO$_{2}$)$_{2}$,1.7092999999999998,eV/atom,
GdSbS,0.0,eV/atom,
CaSiN$_{2}$,3.4391,eV/atom,
Hf$_{5}$CoAs$_{3}$,0.0,eV/atom,
SbCl$_{3}$F$_{2}$,1.8283,eV/atom,
TaPd$_{3}$,0.0,eV/atom,
SrLiNiF$_{6}$,2.3097999999999996,eV/atom,
Pr$_{3}$CuGeSe$_{7}$,1.2046999999999999,eV/atom,
K$_{2}$Te$_{3}$,0.5694000000000004,eV/atom,
AgNO$_{2}$,1.7726,eV/atom,
TeO$_{2}$,2.7971000000000004,eV/atom,
La$_{5}$In$_{3}$Br,0.0,eV/atom,
LiMgAs,0.0,eV/atom,
Sr$_{4}$(PPd)$_{5}$,0.0,eV/atom,
TiGa$_{2}$,0.0,eV/atom,
AlGaN$_{2}$,2.6693,eV/atom,
U(SiNi)$_{2}$,0.0,eV/atom,
NaBeSb,0.8866,eV/atom,
CeCO$_{3}$F,0.17120000000000068,eV/atom,
NiP$_{2}$H$_{2}$O$_{7}$,4.3884,eV/atom,
DyCuPbSe$_{3}$,1.2113000000000005,eV/atom,
Ba$_{5}$Yb$_{8}$Ni$_{4}$O$_{21}$,0.14540000000000042,eV/atom,
Yb$_{2}$S$_{3}$,1.1047000000000002,eV/atom,
ZnCO$_{3}$,3.5639,eV/atom,
NaTi(SiO$_{3}$)$_{2}$,0.0,eV/atom,
TmSb,0.0,eV/atom,
CoS$_{2}$,0.0,eV/atom,
CePd$_{2}$,0.0,eV/atom,
HoAsSe,0.3628999999999998,eV/atom,
Eu$_{3}$AlO$_{5}$,0.0,eV/atom,
Th$_{6}$CoBr$_{15}$,0.6808999999999998,eV/atom,
SrCu,0.0,eV/atom,
Cu$_{2}$Te$_{2}$Br$_{2}$O$_{5}$,0.0,eV/atom,
Ba$_{6}$Ti$_{5}$S$_{15}$O,0.8273000000000001,eV/atom,
TbBr,0.0,eV/atom,
Rb$_{6}$AlSb$_{3}$,0.28679999999999994,eV/atom,
LiB$_{9}$,0.0,eV/atom,
SrSi$_{2}$(BO$_{4}$)$_{2}$,5.4873,eV/atom,
Li$_{2}$CuP$_{2}$O$_{7}$,0.7377,eV/atom,
SmSe,0.0,eV/atom,
NdSbAu,0.0,eV/atom,
Np(GeRh)$_{2}$,0,eV/atom,
FeCuO$_{2}$,0.9379000000000004,eV/atom,
NdMg,0.0,eV/atom,
Cu$_{4}$P$_{2}$O$_{9}$,0.05810000000000004,eV/atom,
LaCoO$_{3}$,0.0,eV/atom,
Sr$_{5}$Cd$_{3}$,0.0,eV/atom,
P$_{3}$(PbO$_{5}$)$_{2}$,0.0,eV/atom,
Ba$_{6}$Mg$_{7}$F$_{26}$,6.8161000000000005,eV/atom,
PbI$_{2}$,2.3702,eV/atom,
HoSb,0.0,eV/atom,
K$_{2}$V$_{3}$O$_{8}$,2.0111,eV/atom,
Ho(BC)$_{2}$,0.0,eV/atom,
InPS$_{4}$,2.3061,eV/atom,
Dy$_{7}$In(CoGe$_{3}$)$_{4}$,0.0,eV/atom,
SrVPO$_{6}$,2.4421,eV/atom,
Yb$_{5}$(InSb$_{3}$)$_{2}$,0.0,eV/atom,
SrBi$_{2}$(B$_{2}$O$_{5}$)$_{2}$,3.6450000000000005,eV/atom,
SbPdSe,0.0,eV/atom,
Np$_{3}$Se$_{3}$O$_{13}$,0.0,eV/atom,
V$_{2}$CuS$_{4}$,0.0,eV/atom,
Nd$_{2}$Ga$_{12}$Ni,0.0,eV/atom,
La(FeAs$_{3}$)$_{4}$,0.0,eV/atom,
YMnO$_{3}$,0.4051999999999998,eV/atom,
Ho$_{2}$Ga$_{8}$Co,0.0,eV/atom,
MnGeO$_{3}$,1.3075999999999999,eV/atom,
RbTe$_{6}$,0.0,eV/atom,
SrP$_{2}$(H$_{2}$O$_{3}$)$_{2}$,6.473000000000001,eV/atom,
BiAu$_{2}$,0.0,eV/atom,
NpSO,0,eV/atom,
MgTi$_{2}$(PO$_{5}$)$_{2}$,3.1210999999999993,eV/atom,
Na$_{2}$GeF$_{6}$,5.604900000000001,eV/atom,
PbO$_{2}$,0.015500000000000291,eV/atom,
TlNiO$_{3}$,0.0,eV/atom,
LiMgSnAu,0.0,eV/atom,
Ti$_{2}$Ag$_{2}$P$_{2}$S$_{11}$,0.6694999999999998,eV/atom,
Y(BC)$_{2}$,0.0,eV/atom,
BaHo$_{2}$O$_{4}$,3.2309,eV/atom,
KCaCrH$_{10}$C$_{6}$O$_{17}$,3.3606,eV/atom,
ZnS,2.0305,eV/atom,
P$_{3}$BrCl$_{14}$,1.5683,eV/atom,
AlCuSe$_{2}$,0.0,eV/atom,
Be$_{12}$V,0.0,eV/atom,
Pr$_{4}$Sb$_{3}$,0.0,eV/atom,
Y(GeRu)$_{2}$,0.0,eV/atom,
Mn$_{2}$ZnH$_{12}$(NO$_{2}$)$_{4}$,1.4958999999999998,eV/atom,
CrInCu$_{2}$,0.0,eV/atom,
Cu$_{8}$Ge$_{5}$C$_{4}$(S$_{2}$N)$_{8}$,0.0,eV/atom,
CrGaP$_{2}$,0.0,eV/atom,
Sr$_{2}$Cu$_{3}$(ClO$_{2}$)$_{2}$,0.0,eV/atom,
CuGeO$_{3}$,0.0,eV/atom,
CoP$_{3}$H$_{16}$N$_{4}$O$_{11}$,0.9217000000000001,eV/atom,
CsFeI$_{4}$,0.6385000000000001,eV/atom,
Cs$_{2}$GaP$_{3}$O$_{10}$,4.1491,eV/atom,
Ta$_{2}$Te$_{2}$O$_{9}$,3.1919,eV/atom,
Yb$_{2}$SO$_{2}$,0.0,eV/atom,
Cu$_{4}$Te$_{5}$(ClO$_{3}$)$_{4}$,0.2763,eV/atom,
Rb$_{2}$CoS$_{2}$,0.0,eV/atom,
VSb$_{2}$,0.0,eV/atom,