formula,Property band_gap,Property band_gap units,Property SMILES
Th(Al$_{2}$Cu)$_{4}$,0.0,eV/atom,
C,3.6930999999999994,eV/atom,[C]
SrEr$_{2}$O$_{4}$,3.7705,eV/atom,
Hg$_{3}$(SBr)$_{2}$,1.609,eV/atom,
CdI$_{2}$,2.3441,eV/atom,
Ca$_{5}$P$_{12}$Rh$_{19}$,0.0,eV/atom,
NaNbO$_{3}$,2.8498,eV/atom,
Ba$_{4}$Mg(SiN$_{3}$)$_{2}$,1.5934999999999997,eV/atom,
Cs$_{2}$Cu$_{2}$Si$_{8}$O$_{19}$,1.1123999999999998,eV/atom,
TlV$_{3}$(SeO$_{6}$)$_{2}$,2.3045999999999998,eV/atom,
CeCdNi$_{4}$,0.0,eV/atom,
AgAuF$_{4}$,1.0606,eV/atom,
Co$_{2}$NiS$_{4}$,0.0,eV/atom,
VAg(PS$_{3}$)$_{2}$,0.0,eV/atom,
Y$_{2}$Se$_{3}$,1.3384000000000003,eV/atom,
Tb$_{2}$Ru$_{2}$O$_{7}$,0.0,eV/atom,
BaTm$_{2}$ZnO$_{5}$,3.3223,eV/atom,
Sr$_{2}$NbN$_{3}$,2.2929999999999997,eV/atom,
Mg$_{2}$CoH$_{5}$,0.19469999999999965,eV/atom,
TmGeAu,0.0,eV/atom,
Nd$_{2}$O$_{3}$,1.5703,eV/atom,
Rb$_{4}$V$_{2}$O$_{9}$,0.5755999999999999,eV/atom,
V$_{5}$P$_{3}$N,0.0,eV/atom,
NiP$_{2}$,0.0,eV/atom,
SrCeN$_{2}$,1.2207999999999997,eV/atom,
Sm$_{2}$MoO$_{6}$,2.2312,eV/atom,
Li$_{2}$HIO,4.3192,eV/atom,
Pr$_{23}$Mg$_{4}$Ni$_{7}$,0.0,eV/atom,
Nd$_{3}$Ge$_{5}$,0,eV/atom,
SrTiH$_{4}$(OF$_{3}$)$_{2}$,3.9338,eV/atom,
CaF$_{2}$,5.1324,eV/atom,
Yb$_{2}$Pt,0.0,eV/atom,
DyPPt,0,eV/atom,
K$_{6}$U$_{2}$(Cu$_{4}$S$_{5}$)$_{3}$,0.5553999999999997,eV/atom,
FeSbS,0.5463000000000005,eV/atom,
LaCo$_{4}$B,0.0,eV/atom,
Cs$_{2}$Zr$_{2}$ZnH$_{12}$(OF$_{2}$)$_{6}$,4.1025,eV/atom,
TbTe$_{3}$,0.0,eV/atom,
Ga$_{4}$Bi$_{2}$O$_{9}$,2.8782,eV/atom,
U$_{2}$Si$_{5}$Os$_{3}$,0.0,eV/atom,
KP$_{2}$AuS$_{7}$,1.5375999999999999,eV/atom,
Ca$_{2}$Co(AsO$_{5}$)$_{2}$,0.11270000000000002,eV/atom,
Sm$_{3}$RuO$_{7}$,0.0,eV/atom,
Li$_{3}$Ag$_{2}$Ge$_{3}$,0.0,eV/atom,
GaH$_{12}$N$_{3}$(OF$_{2}$)$_{3}$,5.216200000000001,eV/atom,O=C([O-])C1(F)C=C(O)C(F)(O)C(F)(OF)C1(F)F.O=C([O-])C1(F)C=C(O)C(F)(O)C(F)(OF)C1(F)F.O=C([O-])C1(F)C=C(O)C(F)(O)C(F)(OF)C1(F)F.O[NH3+].O[NH3+].O[NH3+]
Ho$_{5}$Si$_{3}$B,0.0,eV/atom,
CaMnAs$_{2}$(H$_{3}$O$_{5}$)$_{2}$,2.4146,eV/atom,
CuH$_{8}$CN$_{5}$Cl$_{3}$,0.2587,eV/atom,Cl[Cu]Cl.NC(N)=[N+](N)N
Sr$_{2}$Co(ClO)$_{2}$,0.5993000000000004,eV/atom,
Rb$_{3}$B$_{12}$H$_{12}$Br,4.7451,eV/atom,
VPO$_{5}$,1.7727,eV/atom,
EuN,0.0,eV/atom,
LaMn$_{3}$V$_{4}$O$_{12}$,0.0,eV/atom,
BaYCuS$_{3}$,1.2671999999999994,eV/atom,
Tl$_{4}$HgI$_{6}$,1.1909,eV/atom,
K$_{2}$PbO$_{2}$,1.9201,eV/atom,
BaMnO$_{3}$,1.9175,eV/atom,
Nb$_{5}$Ge$_{3}$B,0.0,eV/atom,
V(Mo$_{3}$Se$_{4}$)$_{2}$,0.0,eV/atom,
VTeO$_{4}$,2.3067,eV/atom,
CdI$_{2}$,2.3554000000000004,eV/atom,
SmCuS$_{2}$,1.1156000000000006,eV/atom,
GaGeTe,0.11869999999999958,eV/atom,
LaBiS$_{2}$O,0.2709999999999999,eV/atom,
Rb$_{2}$Cu(BrCl)$_{2}$,0.12799999999999997,eV/atom,
MgB$_{7}$,1.4592,eV/atom,
IrW,0.0,eV/atom,
Ba$_{3}$Sc$_{4}$(CuO$_{4}$)$_{3}$,0.4394999999999998,eV/atom,
Ba$_{2}$Mn(AsO$_{4}$)$_{2}$,2.7135,eV/atom,
BaMo(PO$_{4}$)$_{2}$,1.6129,eV/atom,
BaSn$_{3}$,0.0,eV/atom,
LaZnSn,0.0,eV/atom,
NaLu(Pd$_{3}$O$_{4}$)$_{2}$,0.0,eV/atom,
CeNdI$_{4}$,0.0,eV/atom,
KEuAsS$_{4}$,0.0,eV/atom,
Be$_{2}$SiO$_{4}$,5.8262,eV/atom,
YbNiH$_{3}$,0.0,eV/atom,
CuH$_{4}$(OF)$_{2}$,0.6739,eV/atom,
CsK$_{4}$GaO$_{4}$,2.4160000000000004,eV/atom,
KAlH$_{2}$CO$_{5}$,5.0845,eV/atom,
Nb$_{3}$Te$_{8}$I$_{7}$O,0.46050000000000013,eV/atom,
Ca$_{3}$(GeIr)$_{4}$,0.0,eV/atom,
K$_{3}$N,0.0,eV/atom,
BaNaBO$_{3}$,3.6487,eV/atom,
Gd$_{3}$Ga$_{5}$O$_{12}$,3.2615000000000003,eV/atom,
PrS,0.0,eV/atom,
F$_{2}$,0.0,eV/atom,[F]
SmInNi,0.0,eV/atom,
Tb$_{2}$Ti$_{2}$S$_{2}$O$_{5}$,0.7039,eV/atom,
TaTl$_{3}$Se$_{4}$,2.2547,eV/atom,
Fe(NiO$_{2}$)$_{2}$,0.0,eV/atom,
PrSc$_{3}$(BO$_{3}$)$_{4}$,4.389200000000001,eV/atom,
SO$_{2}$,2.8367999999999998,eV/atom,O=S=O
CaCr$_{2}$O$_{4}$,2.7875000000000005,eV/atom,
SrAsPt,0.0,eV/atom,
SmAsO$_{4}$,3.7321999999999997,eV/atom,
Cs$_{2}$Pd$_{3}$S$_{4}$,1.3521,eV/atom,
ThCo$_{3}$,0.0,eV/atom,
YbNiC$_{2}$,0.2895000000000003,eV/atom,
ZrRu,0.0,eV/atom,
Tm$_{5}$(ReO$_{6}$)$_{2}$,0.006699999999999484,eV/atom,
Sn$_{2}$IF$_{3}$,2.4355999999999995,eV/atom,
Sr(AlSi)$_{2}$,0.0,eV/atom,
DySn$_{3}$,0.0,eV/atom,
Er(BRh)$_{4}$,0.0,eV/atom,
CeGa$_{6}$,0.0,eV/atom,
Sc(FeGe)$_{6}$,0.015500000000000291,eV/atom,
FeAsS,0.7273999999999994,eV/atom,
TiTlPS$_{5}$,1.1762000000000001,eV/atom,[Ti+4].[Tl+].[O-]P([O-])([O-])=S.[O-]P([O-])(=S)O.S=P(O)(O)O.S=P(O)(O)O.S=P(O)(O)O
Mn$_{3}$SnN,0.0,eV/atom,
Sr$_{4}$Li(BO$_{3}$)$_{3}$,4.1874,eV/atom,
KDy(CO$_{3}$)$_{2}$,4.3497,eV/atom,
Ce$_{5}$Zr$_{3}$O$_{16}$,1.8294999999999995,eV/atom,
TiBO$_{3}$,0.0,eV/atom,
NdInNi,0.0,eV/atom,
Al(MoS$_{2}$)$_{4}$,0.11579999999999924,eV/atom,
Ag$_{2}$H$_{12}$S(NO)$_{4}$,2.9412000000000003,eV/atom,
Cs$_{2}$U$_{2}$Mo$_{3}$O$_{16}$,2.4489,eV/atom,
ThPt,0.0,eV/atom,
Co$_{3}$SnC$_{12}$BrO$_{12}$,2.327,eV/atom,
AgNO$_{3}$,2.0088999999999997,eV/atom,
Na$_{2}$LiAlH$_{6}$,2.6364,eV/atom,
CsBeF$_{3}$,5.5947,eV/atom,
Cs$_{2}$Cd$_{3}$Te$_{4}$,1.5570000000000002,eV/atom,
NbCd$_{3}$,0.0,eV/atom,
Ca$_{5}$Ag$_{3}$,0.0,eV/atom,
K$_{2}$TiS$_{3}$,1.1217,eV/atom,
Ta$_{6}$Co$_{16}$Ge$_{7}$,0.0,eV/atom,
ErH$_{3}$(SO$_{4}$)$_{3}$,5.8801,eV/atom,
SmCrS$_{3}$,0.0,eV/atom,
Er$_{4}$Ga$_{16}$Co$_{3}$,0.0,eV/atom,
LiHoS$_{2}$,1.9863000000000004,eV/atom,
CrBO$_{3}$,2.3026,eV/atom,
Hf(VGa$_{2}$)$_{2}$,0.0,eV/atom,
HI$_{3}$O$_{8}$,2.5131,eV/atom,
Tl(MoSe)$_{3}$,0.5586999999999995,eV/atom,
K$_{5}$SnBi$_{3}$,0.0032999999999998586,eV/atom,
PbCClO$_{2}$,2.9095999999999997,eV/atom,
H$_{3}$CBr,4.5392,eV/atom,BrC
KTiCl$_{3}$,0.0,eV/atom,
CeCd$_{11}$,0.0,eV/atom,
YFeO$_{3}$,1.5605000000000002,eV/atom,
Cu$_{2}$SiHgTe$_{4}$,0.0,eV/atom,
Fe$_{5}$B$_{2}$P,0.0,eV/atom,
Sr$_{3}$Ti$_{2}$O$_{7}$,1.8404999999999996,eV/atom,
Pr(GeRh)$_{2}$,0.0,eV/atom,
CeCrS$_{2}$O,0.0,eV/atom,
CaCu$_{5}$,0.0,eV/atom,
Sr$_{2}$In$_{4}$Pt$_{3}$,0.0,eV/atom,
Rb$_{2}$ZrTe$_{3}$,0.49849999999999994,eV/atom,
Pr(CuSi)$_{2}$,0.0,eV/atom,
K$_{3}$CrC$_{5}$N$_{6}$O,0.7213,eV/atom,
NpGa$_{3}$,0.0,eV/atom,
KVPO$_{5}$,3.0252,eV/atom,
Ba$_{2}$NdMoO$_{6}$,0.9790000000000005,eV/atom,
TaBiO$_{4}$,2.9008999999999996,eV/atom,
In$_{5}$Br$_{7}$,2.0724,eV/atom,
SbH$_{2}$(NF$_{2}$)$_{3}$,0.11749999999999994,eV/atom,N#[N+]N.F[Sb-](F)(F)(F)(F)F
PrTlCd,0.0,eV/atom,
YRe$_{2}$,0.0,eV/atom,
Na$_{6}$Cu$_{9}$(PO$_{4}$)$_{8}$,0.17789999999999973,eV/atom,
SrGd$_{2}$Co$_{2}$O$_{7}$,0.0,eV/atom,
Gd$_{5}$(FeB$_{3}$)$_{2}$,0.0,eV/atom,
Bi$_{2}$O$_{3}$,2.4162999999999997,eV/atom,
PaBr$_{5}$,1.9592,eV/atom,
Ba$_{4}$LaGe$_{3}$SbSe$_{13}$,1.2329999999999997,eV/atom,
Cr$_{2}$NiO$_{4}$,2.4319000000000006,eV/atom,
Ca$_{7}$Si$_{6}$H$_{4}$CO$_{23}$,4.581099999999999,eV/atom,
KCoH$_{3}$(CO$_{2}$)$_{3}$,2.9743,eV/atom,
Pt(OF$_{3}$)$_{2}$,0.0242,eV/atom,
La$_{5}$Sb$_{3}$Br,0.0,eV/atom,
MoOs(PbO$_{3}$)$_{2}$,0.49040000000000017,eV/atom,
ErCu$_{4}$Ag,0.0,eV/atom,
Na$_{5}$(CN$_{2}$)$_{3}$,0.0,eV/atom,
CrGaCo$_{2}$,0.0,eV/atom,
TlI,2.1452,eV/atom,
NdScSb,0.0,eV/atom,
Yb$_{3}$Co,0.0,eV/atom,
BH$_{2}$S$_{3}$N$_{3}$F$_{4}$,2.3506,eV/atom,
Zn(ReO$_{6}$)$_{2}$,0.09960000000000013,eV/atom,
SnSO$_{4}$,4.174099999999999,eV/atom,[Sn+4].O=S(=O)([O-])[O-].O=S(=O)([O-])[O-]
Tc$_{2}$P$_{3}$,0.0,eV/atom,
CaSiSnO$_{5}$,3.1945,eV/atom,
Li$_{4}$CO$_{4}$,4.9149,eV/atom,
Yb(NiP)$_{2}$,0.0,eV/atom,
MoPCl$_{5}$O$_{3}$,2.3144,eV/atom,
LiGa(MoO$_{4}$)$_{2}$,3.5664000000000002,eV/atom,
Gd$_{3}$P$_{4}$Pd$_{7}$,0.0,eV/atom,
Li$_{2}$NiGe$_{3}$O$_{8}$,3.0431,eV/atom,
Li$_{2}$InAu,0.0,eV/atom,
RbAlSiO$_{4}$,4.3806,eV/atom,
ZrPt,0.0,eV/atom,
PrIn$_{5}$Ir,0.0,eV/atom,
MnCo$_{2}$Ge,0.0,eV/atom,
NpF$_{4}$,0.0,eV/atom,
RbBF$_{4}$,7.737,eV/atom,
YInO$_{3}$,2.0516999999999994,eV/atom,
Cr(B$_{3}$H$_{8}$)$_{2}$,0.9962000000000001,eV/atom,
K$_{3}$As$_{11}$,1.4670999999999998,eV/atom,
YCrB$_{4}$,0.15800000000000036,eV/atom,
BaV$_{2}$(PO$_{5}$)$_{2}$,2.2674000000000003,eV/atom,
TeO$_{2}$,1.4204000000000008,eV/atom,
KUCuSe$_{3}$,0.0,eV/atom,
Ba$_{2}$LuTaO$_{6}$,3.392,eV/atom,
ErAlPd,0.0,eV/atom,
NaFe$_{3}$(PO$_{4}$)$_{3}$,0.4312,eV/atom,
Y(Zn$_{10}$Ru)$_{2}$,0.0,eV/atom,
S$_{5}$N$_{2}$(O$_{2}$F)$_{4}$,4.3178,eV/atom,
Ba$_{2}$NdNb(CuO$_{4}$)$_{2}$,0.0,eV/atom,
DyPdPb,0.0,eV/atom,
SiPb$_{4}$(ClO)$_{4}$,3.5302999999999995,eV/atom,
Sm$_{3}$S$_{3}$N,1.3056,eV/atom,
Na$_{2}$Li$_{3}$FeO$_{4}$,2.9156,eV/atom,
CeZn$_{11}$,0.0,eV/atom,
Rb$_{2}$TaCuS$_{4}$,2.3587,eV/atom,
Tm(SiPd)$_{2}$,0.0,eV/atom,
Ce$_{16}$Ru$_{9}$,0.0,eV/atom,
CsOsNO$_{3}$,2.9529,eV/atom,
Dy$_{2}$S$_{2}$O,2.1698999999999997,eV/atom,
Er$_{6}$Zn$_{23}$,0.0,eV/atom,
ErMnO$_{3}$,0.4478000000000004,eV/atom,
YNi$_{4}$B,0.0,eV/atom,
Ga$_{5}$Rh$_{3}$,0.0,eV/atom,
VCu$_{2}$BiO$_{6}$,0.01330000000000009,eV/atom,
H$_{12}$RhC$_{8}$NO$_{6}$,1.0661999999999998,eV/atom,
CdGeO$_{3}$,1.301,eV/atom,
Zn$_{3}$(AsO$_{3}$)$_{2}$,3.5393,eV/atom,
TmNiSn,0.0,eV/atom,
TbSnPt$_{2}$,0.0,eV/atom,
LaGaS$_{2}$O,1.9282000000000004,eV/atom,
NbTe$_{5}$Pd,0.0,eV/atom,
YbCu$_{4}$Ni,0.0,eV/atom,
Ce$_{3}$AlC,0.0,eV/atom,
SbAs$_{3}$(Se$_{2}$F$_{3}$)$_{2}$,1.8713000000000002,eV/atom,
LaPd$_{3}$S$_{4}$,0.0,eV/atom,
Sr$_{5}$P$_{3}$BrO$_{12}$,4.9315,eV/atom,
Dy$_{3}$Co$_{11}$B$_{4}$,0.0,eV/atom,
Ca$_{2}$B$_{5}$H$_{2}$ClO$_{10}$,5.228800000000001,eV/atom,
LuCu$_{2}$,0.0,eV/atom,
CsCuS$_{4}$,1.7616,eV/atom,
Sr$_{8}$Rh$_{5}$,0.0,eV/atom,
Bi$_{10}$Mo$_{3}$,0.0,eV/atom,
EuB$_{2}$Rh$_{3}$,0.012900000000000134,eV/atom,
La$_{2}$Ti$_{2}$O$_{7}$,2.8423999999999996,eV/atom,
BPd$_{2}$,0.0,eV/atom,
PrCo$_{2}$B$_{2}$C,0.0,eV/atom,
Ag$_{5}$Te$_{2}$Cl,0.7464,eV/atom,
Al$_{8}$Cr$_{5}$,0.0,eV/atom,
K$_{2}$Li$_{3}$FeO$_{4}$,3.0917,eV/atom,
ZrH,0.0,eV/atom,
HgO,1.1867,eV/atom,
Sr(SbRu)$_{2}$,0.0,eV/atom,
VS$_{4}$,0.9396,eV/atom,
Eu$_{5}$Pd$_{2}$,0.0,eV/atom,
As$_{2}$Rh,0.23749999999999982,eV/atom,
PtI$_{3}$,0.34019999999999984,eV/atom,
K$_{2}$NaH$_{10}$IO$_{10}$,2.5046,eV/atom,
BaGdCo$_{2}$O$_{5}$,0.0,eV/atom,
Zr$_{2}$BIr$_{6}$,0.0,eV/atom,
Rb$_{3}$Pr$_{3}$(PS$_{4}$)$_{4}$,2.2855999999999996,eV/atom,
Ca$_{2}$Sb,0.0,eV/atom,
Gd(FeGe)$_{2}$,0.0,eV/atom,
Na$_{4}$Cu(MoO$_{4}$)$_{3}$,0.24230000000000018,eV/atom,
Ho$_{2}$InPd$_{2}$,0.0,eV/atom,
Ba$_{2}$NdRuO$_{6}$,0.1256999999999997,eV/atom,
DyMn$_{4}$(CuO$_{4}$)$_{3}$,0.0,eV/atom,
Hf$_{3}$(NbGe$_{2}$)$_{2}$,0.0,eV/atom,
BaYbFe$_{4}$O$_{7}$,1.0989,eV/atom,
P$_{3}$Rh,0.0,eV/atom,
Mn$_{3}$Bi(CO)$_{15}$,1.7823,eV/atom,
Ti$_{6}$Si$_{7}$Ni$_{16}$,0.0,eV/atom,
K$_{2}$ZnTe$_{2}$,2.0535,eV/atom,
HoAl$_{3}$(PbO$_{4}$)$_{2}$,2.9941,eV/atom,
Kr,7.1762999999999995,eV/atom,[Kr]
H$_{16}$AuC$_{6}$S$_{2}$N$_{4}$ClO$_{4}$,3.3875,eV/atom,
Sm$_{6}$InCo$_{2}$,0.0,eV/atom,
Ca$_{2}$SiO$_{4}$,4.6785,eV/atom,
CdI$_{2}$,2.4015000000000004,eV/atom,
Ca$_{2}$MnReO$_{6}$,0.0,eV/atom,
UGaFe,0.0,eV/atom,
Hf$_{3}$Si$_{2}$,0.0,eV/atom,
Bi$_{2}$Te$_{2}$WO$_{10}$,2.9479,eV/atom,
AlVFe$_{2}$,0.0,eV/atom,
LiV$_{2}$(PO$_{4}$)$_{3}$,0.0,eV/atom,
BeS,3.1453,eV/atom,
Cs$_{2}$TeI$_{6}$,1.3877,eV/atom,
CoH$_{6}$(SeO$_{4}$)$_{2}$,2.9482999999999997,eV/atom,
Ga$_{5}$Fe$_{6}$,0.0,eV/atom,
Sr$_{2}$P$_{6}$O$_{17}$,5.326,eV/atom,
BaPd$_{5}$,0.0,eV/atom,
LuHCl,0.0,eV/atom,
Dy$_{2}$SiSeO$_{4}$,2.5740999999999996,eV/atom,
RbNa$_{2}$AuO$_{2}$,2.0954,eV/atom,
BeH$_{14}$(I$_{2}$O$_{9}$)$_{2}$,3.3177000000000003,eV/atom,
Ba$_{2}$EuCl$_{7}$,0.0,eV/atom,
KNb(PO$_{4}$)$_{2}$,3.1667,eV/atom,
Ca$_{3}$In,0.0,eV/atom,
UV$_{2}$PbO$_{9}$,2.1498,eV/atom,
BiH$_{3}$Ru$_{3}$(CO)$_{9}$,2.2639,eV/atom,
CsSr$_{2}$Ta$_{3}$O$_{10}$,2.0452000000000004,eV/atom,
Na$_{5}$Y(WO$_{4}$)$_{4}$,4.7451,eV/atom,
Li$_{7}$Pb$_{2}$,0.0,eV/atom,
HgB(CN)$_{4}$,3.6368,eV/atom,
Ta$_{2}$Ni$_{3}$Se$_{8}$,0.3303999999999996,eV/atom,
NpN$_{2}$,0.0,eV/atom,
DyFe$_{5}$,0.0,eV/atom,
HoB$_{6}$,0.0,eV/atom,
BaY$_{2}$O$_{4}$,3.2493,eV/atom,
Cu$_{8}$GeSe$_{6}$,0.3182999999999998,eV/atom,
Pr$_{5}$Tl$_{3}$,0.0,eV/atom,
Rb$_{2}$S,1.967,eV/atom,
Ag$_{3}$F$_{8}$,0.3233999999999999,eV/atom,
CsTaPS$_{6}$,0.0,eV/atom,
Ce$_{4}$Sn$_{25}$Pt$_{12}$,0.0,eV/atom,
Bi$_{2}$PbS$_{4}$,1.0821000000000005,eV/atom,
Nd$_{3}$Co$_{29}$(Si$_{2}$B$_{5}$)$_{2}$,0.007800000000000473,eV/atom,
Sm$_{2}$Te$_{5}$,0.0,eV/atom,
LiIn$_{2}$Pd,0.0,eV/atom,
Sr$_{2}$FeReO$_{6}$,0.0,eV/atom,
CoSi,0.0,eV/atom,
Cr$_{3}$B$_{7}$ClO$_{13}$,2.7083,eV/atom,
Ba$_{2}$GeS$_{4}$,2.2853,eV/atom,
Na$_{3}$W$_{3}$Cl$_{13}$,0.9180000000000001,eV/atom,
HfCrSi,0.0,eV/atom,
K$_{4}$Nb$_{8}$Si(P$_{2}$O$_{17}$)$_{2}$,1.8862999999999999,eV/atom,
Sr$_{2}$MgSi$_{2}$O$_{7}$,4.495900000000001,eV/atom,
SnHg$_{7}$(P$_{2}$Br$_{3}$)$_{2}$,1.6483000000000003,eV/atom,
Na$_{2}$Zn(HO)$_{4}$,3.0835,eV/atom,
Fe$_{3}$PtN,0.0,eV/atom,
CaPb,0.0,eV/atom,
TaPRu,0.0,eV/atom,
Nd$_{3}$CuSnS$_{7}$,1.7587000000000002,eV/atom,
Mo(PO$_{3}$)$_{3}$,4.2428,eV/atom,
TlV$_{5}$Se$_{8}$,0.0,eV/atom,
Lu$_{2}$Fe$_{14}$B,0.0,eV/atom,
BaYMn$_{2}$O$_{5}$,0.018799999999999706,eV/atom,
Lu$_{2}$SiO$_{5}$,4.567500000000001,eV/atom,
AlS$_{2}$NCl$_{4}$,2.1062000000000003,eV/atom,
KBrF$_{4}$,3.2009,eV/atom,
S,2.2718,eV/atom,
K$_{2}$ZnN$_{4}$,0.7795,eV/atom,
CsSnBr$_{3}$,1.6021999999999998,eV/atom,
SrBeF$_{4}$,7.5245,eV/atom,
WSe$_{2}$,1.4465,eV/atom,
Pu$_{3}$Ga,0.0,eV/atom,
FeSiO$_{3}$,2.7187,eV/atom,
Ba$_{3}$P$_{4}$,0.48150000000000004,eV/atom,
KP,0.0,eV/atom,
Ti$_{6}$Ni$_{16}$Ge$_{7}$,0.0,eV/atom,
Mn(CO$_{3}$)$_{2}$,0.0,eV/atom,
TbAgGe,0.0,eV/atom,
CsPdCl$_{3}$,1.4655,eV/atom,
Ba$_{2}$Mn$_{2}$Si$_{2}$O$_{9}$,1.9934,eV/atom,
Cs$_{3}$BiO$_{3}$,3.0476,eV/atom,
Ti$_{3}$Al$_{2}$NiO,0.0,eV/atom,
Na$_{4}$CO$_{4}$,2.4246,eV/atom,
Si$_{3}$N$_{4}$,3.5562000000000005,eV/atom,
NdSeClO$_{3}$,4.1926000000000005,eV/atom,
Li$_{2}$CaSiO$_{4}$,5.189699999999999,eV/atom,
K$_{4}$Al$_{3}$(SiO$_{4}$)$_{3}$,0.0,eV/atom,
Eu$_{2}$Si$_{5}$Pt$_{3}$,0.0,eV/atom,
NaEr(PS$_{3}$)$_{2}$,2.5368999999999997,eV/atom,
NaSrCrF$_{6}$,3.9974,eV/atom,
LaInNi$_{2}$,0.0,eV/atom,
Zr$_{2}$Ni,0.0,eV/atom,
Ba$_{3}$SrO$_{4}$,2.1818999999999997,eV/atom,
K$_{2}$NiO$_{2}$,2.7796,eV/atom,
NaFePO$_{4}$,3.2918000000000003,eV/atom,
Sr$_{2}$MgTeO$_{6}$,2.3278000000000003,eV/atom,
K(CoS)$_{2}$,0.0,eV/atom,
Ca$_{5}$Sn$_{3}$H,0.0,eV/atom,
PuRh$_{3}$,0.0036000000000004917,eV/atom,
KCuCO$_{3}$F,0.0,eV/atom,
La$_{3}$ZnNi$_{3}$,0.006199999999999761,eV/atom,
BiCl$_{3}$,3.3547,eV/atom,
Cs$_{2}$SnAs$_{2}$Se$_{9}$,0.7168000000000003,eV/atom,
Nd$_{2}$Te$_{4}$O$_{11}$,3.2832000000000003,eV/atom,
Na$_{2}$Sn$_{2}$C$_{3}$(O$_{2}$F)$_{3}$,2.4736000000000002,eV/atom,
LiZnPH$_{2}$O$_{5}$,4.024900000000001,eV/atom,
Ti$_{3}$InC,0.0,eV/atom,
Bi$_{2}$B$_{8}$O$_{15}$,4.3762,eV/atom,
TaNiP,0.0,eV/atom,
CsPO$_{4}$,0.0,eV/atom,
WCl$_{4}$O,2.335,eV/atom,
RbPrTe$_{4}$,0.18599999999999994,eV/atom,
Cs$_{2}$Cr$_{4}$Cu(HO$_{4}$)$_{4}$,0.8804,eV/atom,
Cs$_{2}$KBiF$_{6}$,4.9469,eV/atom,
UWC$_{2}$,0.0,eV/atom,
MoO$_{3}$,1.6795999999999998,eV/atom,
Er$_{5}$Si$_{3}$,0.0,eV/atom,
Gd$_{3}$NbO$_{7}$,2.282,eV/atom,
CeAs$_{2}$,0.0813000000000006,eV/atom,
Lu(CoGe)$_{2}$,0.0,eV/atom,
Zr$_{2}$Pd,0.0,eV/atom,
LiY(CuP)$_{2}$,0.0,eV/atom,
Ba$_{2}$SiS$_{4}$,3.0012,eV/atom,
K$_{2}$PdO$_{2}$,1.3697,eV/atom,
LiBiF$_{4}$,4.8473,eV/atom,
TbAu$_{2}$,0.0,eV/atom,
LaNiP,0.0,eV/atom,
Ba$_{3}$NbFe$_{3}$(SiO$_{7}$)$_{2}$,2.3971,eV/atom,
Dy$_{2}$C,0.0,eV/atom,
YbZnAu,0.0,eV/atom,
MnH(CO)$_{4}$,2.7939999999999996,eV/atom,
CaAl$_{2}$Si$_{2}$(H$_{2}$O$_{5}$)$_{2}$,5.1385000000000005,eV/atom,
GeTe,0.0,eV/atom,
La$_{3}$MnFeS$_{7}$,0.05370000000000008,eV/atom,
Cs$_{2}$CuH$_{12}$(SO$_{7}$)$_{2}$,0.6475000000000001,eV/atom,
SrZr(PO$_{4}$)$_{2}$,4.1079,eV/atom,
K$_{2}$TiO$_{3}$,3.4121,eV/atom,
Dy(NiBi)$_{2}$,0.0,eV/atom,
Hf$_{2}$CuGe$_{4}$,0.0,eV/atom,
Dy$_{2}$S$_{2}$O,2.5645,eV/atom,
UP$_{2}$H$_{6}$O$_{7}$,2.5385,eV/atom,
Yb$_{2}$GeS$_{4}$,2.1174999999999997,eV/atom,
Cr$_{3}$Fe,0.0,eV/atom,
Sr$_{2}$CdWO$_{6}$,3.4047,eV/atom,
SrMoO$_{4}$,3.8073999999999995,eV/atom,
Ag$_{3}$RuO$_{4}$,0.0,eV/atom,
ErSnIr,0.0,eV/atom,
KMg$_{2}$B$_{12}$H$_{19}$O$_{30}$,5.2772,eV/atom,
RbCu$_{2}$(SeO$_{5}$)$_{2}$,0.454,eV/atom,
Li$_{3}$BN$_{2}$,3.3675999999999995,eV/atom,
LaZnAsO,0.5760000000000005,eV/atom,
Hg$_{3}$Se$_{3}$O$_{10}$,1.9291,eV/atom,
Dy$_{2}$CoSi$_{2}$,0.0,eV/atom,
Np(OF)$_{2}$,0.03180000000000005,eV/atom,
NbAs,0.0,eV/atom,
La$_{2}$B$_{8}$O$_{15}$,4.385699999999999,eV/atom,
Ba$_{2}$YTlCu$_{2}$O$_{7}$,0.0,eV/atom,
KHfCuS$_{3}$,0.7601999999999998,eV/atom,
Ca$_{2}$AsI,1.5571000000000002,eV/atom,
PH$_{6}$NO$_{2}$,5.0661000000000005,eV/atom,
La$_{20}$Ti$_{11}$(S$_{22}$O$_{3}$)$_{2}$,0.2850999999999999,eV/atom,
Pb$_{2}$ClOF,2.5689999999999995,eV/atom,
Na$_{3}$Nd(BO$_{3}$)$_{2}$,3.7653000000000003,eV/atom,
LaRhC$_{2}$,0.0,eV/atom,
Tm$_{2}$(NiB$_{2}$)$_{3}$,0.0,eV/atom,
Be$_{2}$Mo,0.0,eV/atom,
RbInS$_{2}$,2.0972,eV/atom,
UGe$_{3}$,0.0,eV/atom,
Pu$_{3}$In,0.0,eV/atom,
LaCoCu$_{12}$,0.0,eV/atom,
Tm$_{2}$Si$_{2}$O$_{7}$,4.5925,eV/atom,
DyP$_{2}$H$_{9}$O$_{10}$,2.2485999999999997,eV/atom,
BaC$_{20}$,0.14360000000000017,eV/atom,[C].[C].[C].[C].[C].[C].[C].[C].[C].[C].[Ba]
CrClO,1.8896000000000002,eV/atom,
CsHSO$_{2}$,3.8448,eV/atom,
La$_{5}$Si$_{4}$,0.014499999999999957,eV/atom,
ZnS,1.9999000000000002,eV/atom,
Sc$_{2}$S$_{3}$,0.6433000000000004,eV/atom,
Sr$_{2}$CaMoO$_{6}$,2.2555,eV/atom,
ReCl$_{4}$,0.0,eV/atom,
ZnCl$_{2}$,4.04,eV/atom,
LuAlB$_{4}$,0.0,eV/atom,
CsClO$_{2}$,2.3388999999999998,eV/atom,
Eu(SiRh)$_{2}$,0.0,eV/atom,
Ba(MgPb)$_{2}$,0.0,eV/atom,
TmNiGe$_{3}$,0.0,eV/atom,
ZnP$_{2}$,1.4617000000000004,eV/atom,
NaAlH$_{2}$CO$_{5}$,5.0440000000000005,eV/atom,
P$_{2}$Pb$_{3}$O$_{8}$,3.3518,eV/atom,
LaO$_{3}$,0.5851999999999999,eV/atom,
SrZnSb$_{2}$,0.0,eV/atom,
Na$_{4}$PbO$_{4}$,1.2998000000000003,eV/atom,
YGaCo,0.0,eV/atom,
NdSiRu,0.0,eV/atom,
NdAlPt,0.0,eV/atom,
Ce$_{3}$Ta(ClO$_{2}$)$_{3}$,0.0,eV/atom,
KLi$_{2}$O$_{3}$,0.013400000000000002,eV/atom,
Pr$_{3}$W(ClO$_{2}$)$_{3}$,3.5179,eV/atom,
Pr$_{7}$Rh$_{3}$,0.0,eV/atom,
Nd$_{4}$Ni$_{3}$O$_{8}$,0,eV/atom,
TmFeGe$_{2}$,0.0,eV/atom,
SnHg$_{2}$(SBr)$_{2}$,2.3254,eV/atom,
Th$_{2}$Tl,0.0,eV/atom,
TbTlSe$_{2}$,2.1725999999999996,eV/atom,
SrHfO$_{3}$,4.0578,eV/atom,
Dy$_{2}$Hf$_{2}$O$_{7}$,3.2266999999999997,eV/atom,
K$_{2}$NClO$_{3}$,4.0449,eV/atom,
Er$_{2}$Co$_{3}$Ge$_{5}$,0.0,eV/atom,
PrAgAs$_{2}$,0.0,eV/atom,
BaCa$_{3}$O$_{4}$,2.3279,eV/atom,
ThCoSi$_{3}$,0.0,eV/atom,
Ho$_{2}$Ti$_{3}$Si$_{4}$,0.0,eV/atom,
CaO,2.0943,eV/atom,
K$_{2}$Al$_{2}$Sb$_{2}$O$_{7}$,3.499,eV/atom,
Dy$_{2}$Si$_{5}$Rh$_{3}$,0.0,eV/atom,
YbSiAg,0,eV/atom,
La(CoP)$_{2}$,0.0,eV/atom,
Ho$_{5}$Ni$_{2}$Sb,0,eV/atom,
KTh$_{2}$(PO$_{4}$)$_{3}$,4.5918,eV/atom,
Tb$_{4}$BBr$_{6}$,0.009400000000000297,eV/atom,
KCu$_{4}$(PO$_{4}$)$_{3}$,0.0,eV/atom,
Ce$_{2}$Mn$_{2}$Se$_{2}$O$_{3}$,0.0,eV/atom,
Nd$_{2}$Te$_{3}$MoO$_{12}$,3.2146000000000003,eV/atom,
BaAg$_{2}$(HgO$_{2}$)$_{2}$,1.3289,eV/atom,
YbMg$_{2}$Cu$_{9}$,0.0,eV/atom,
La$_{2}$Mo$_{2}$O$_{7}$,0.4386000000000001,eV/atom,
HoSe,0.0,eV/atom,
Sc$_{5}$(NiTe)$_{2}$,0.0,eV/atom,
Mg$_{4}$AlSi$_{6}$,0.0,eV/atom,
NaTiFeO$_{4}$,1.9787999999999997,eV/atom,
Hf$_{4}$NbGe$_{4}$,0.0,eV/atom,
Ca$_{2}$Zn$_{2}$CuP$_{3}$,0.2726000000000006,eV/atom,
LaP$_{2}$,0.5579999999999998,eV/atom,
Sr$_{3}$MgGeN$_{4}$,1.4132000000000002,eV/atom,
ErInCu,0.0,eV/atom,
BaGd$_{2}$ZnO$_{5}$,2.8138,eV/atom,
K$_{3}$TbSi$_{2}$O$_{7}$,3.688,eV/atom,
Ba(GaP)$_{2}$,1.3799000000000001,eV/atom,
CaBeB$_{2}$O$_{5}$,5.692200000000001,eV/atom,
Ti$_{3}$Al$_{2}$NiC,0.0,eV/atom,
Gd(BO$_{2}$)$_{3}$,2.7361000000000004,eV/atom,
SbS$_{5}$N$_{5}$Cl$_{6}$,1.8725999999999998,eV/atom,
K$_{2}$HgS$_{2}$,2.1246,eV/atom,
LiVO$_{3}$,3.0342000000000002,eV/atom,
Ba$_{2}$CdTe$_{3}$,1.4020000000000001,eV/atom,
CaGaH$_{4}$,0.0,eV/atom,
NaCr$_{5}$Se$_{8}$,0.058800000000000185,eV/atom,
SiC,1.7261000000000006,eV/atom,
CdH$_{4}$NCl$_{3}$,3.5397,eV/atom,
K$_{2}$Au$_{3}$,0.0,eV/atom,
Zn(IO$_{3}$)$_{2}$,3.1978999999999997,eV/atom,
SmAlGe,0.0,eV/atom,
MgTl,0.0,eV/atom,
CoSb,0.0,eV/atom,
Tb$_{4}$Bi$_{3}$,0.0,eV/atom,
CeB$_{2}$C,0.0,eV/atom,
YNiC$_{2}$,0.0,eV/atom,
TiSiIr,0.0,eV/atom,
Tb$_{2}$NiAs$_{2}$,0.0,eV/atom,
Tb$_{8}$Ni$_{18}$P$_{11}$,0.0,eV/atom,
Ba$_{2}$Re$_{6}$S$_{11}$,1.3384999999999998,eV/atom,
TmSiPt,0.0,eV/atom,
La$_{3}$BCCl$_{3}$,0.0,eV/atom,
SmCu(WO$_{4}$)$_{2}$,1.4017,eV/atom,
Sr$_{2}$Cu(BO$_{3}$)$_{2}$,0.4861,eV/atom,
TlAu(CN)$_{2}$,1.7229,eV/atom,
LaCN$_{2}$F,2.681,eV/atom,
ZnS,2.0208,eV/atom,
Rb$_{3}$Ge$_{2}$Br$_{7}$,2.8982,eV/atom,
NpB$_{2}$C,0.0,eV/atom,
H$_{8}$C$_{2}$SeS$_{2}$(BrN$_{2}$)$_{2}$,2.5463,eV/atom,
K$_{2}$P$_{4}$PbO$_{12}$,5.1026,eV/atom,
Ag$_{2}$BiO$_{3}$,0.5019999999999998,eV/atom,