formula,Property band_gap,Property band_gap units,Property SMILES
CeAlCu,0.0,eV/atom,
ZrNi$_{2}$,0.0,eV/atom,
Ta$_{3}$Au,0.0,eV/atom,
VPbO$_{3}$,0.0,eV/atom,
K$_{2}$GdF$_{5}$,4.5118,eV/atom,
Ho$_{3}$Ga$_{8}$Ir$_{3}$,0.0,eV/atom,
NaZnFe$_{2}$(PO$_{4}$)$_{3}$,2.5,eV/atom,
Cu$_{2}$GeTe$_{3}$,0.0,eV/atom,
KCr$_{2}$FeO$_{8}$,1.7437,eV/atom,
Sr$_{2}$LuBiO$_{6}$,1.9118,eV/atom,
SbN$_{2}$F$_{5}$,1.7272000000000003,eV/atom,
MgH$_{4}$(NO$_{4}$)$_{2}$,3.4439,eV/atom,[Mg+2].O=[N+]([O-])[O-].O=[N+]([O-])[O-].O.O
Ce$_{2}$P$_{2}$AuO,0.0,eV/atom,
InSn$_{2}$Br$_{5}$,2.305,eV/atom,
YGa$_{2}$,0.0,eV/atom,
KH$_{3}$C$_{2}$O$_{3}$,5.1738,eV/atom,
SiO$_{2}$,4.0015,eV/atom,
TbCu$_{5}$,0.0,eV/atom,
LaCuGe$_{2}$,0.0,eV/atom,
Sc$_{2}$Si$_{2}$O$_{7}$,4.2797,eV/atom,
TeH$_{21}$C$_{7}$(NCl$_{2}$)$_{3}$,3.0381,eV/atom,
KNO$_{2}$,2.535,eV/atom,
Lu$_{2}$MnSe$_{4}$,0.7573999999999996,eV/atom,
SmF$_{3}$,5.4407000000000005,eV/atom,
Cs$_{2}$S,2.0957,eV/atom,
KAg$_{2}$PS$_{4}$,1.2441,eV/atom,
ErSiPd,0.0,eV/atom,
AlCr$_{3}$B$_{4}$,0.0,eV/atom,
YbCdAu,0.0,eV/atom,
Tb$_{2}$Fe$_{2}$Si$_{2}$C,0.0,eV/atom,
TiCl$_{3}$,0.0,eV/atom,
Sr(Ni$_{5}$P$_{3}$)$_{2}$,0.0,eV/atom,
Zr$_{3}$(VGa$_{2}$)$_{2}$,0.0,eV/atom,
YSi$_{2}$,0.0,eV/atom,
EuSn$_{2}$Ir,0.009699999999999598,eV/atom,
U(Al$_{2}$Fe)$_{4}$,0.0,eV/atom,
Si$_{3}$Mo$_{5}$,0.0,eV/atom,
BaYFeCuO$_{5}$,0.5511000000000004,eV/atom,
CsNb(CuTe$_{2}$)$_{2}$,1.0253,eV/atom,
CdI$_{2}$,2.393,eV/atom,
GeP,0.8379000000000003,eV/atom,
UCu$_{4}$Pd,0.1609999999999996,eV/atom,
Pr$_{2}$P$_{3}$(HO$_{2}$)$_{5}$,5.6653,eV/atom,
KGaP$_{2}$O$_{7}$,4.3848,eV/atom,
NaHoGeO$_{4}$,3.6055,eV/atom,
Mn$_{3}$Mo$_{2}$H$_{34}$C$_{22}$N$_{16}$O$_{5}$,1.0399,eV/atom,
CaNb$_{2}$P$_{2}$O$_{11}$,2.4718,eV/atom,
Si$_{2}$W,0.0,eV/atom,
LiPr$_{2}$IrO$_{6}$,0.0,eV/atom,
HfW$_{2}$,0.0,eV/atom,
Hf$_{3}$Ge$_{2}$,0.0,eV/atom,
Ca$_{7}$Au$_{3}$,0.0,eV/atom,
In(Mo$_{3}$S$_{4}$)$_{2}$,0.0,eV/atom,
Na$_{2}$O$_{2}$,1.7361,eV/atom,
NaHg$_{2}$,0.0,eV/atom,
InSiPt$_{5}$,0.0,eV/atom,
Ga$_{5}$Pd$_{13}$,0.0,eV/atom,
Ni,0.0,eV/atom,
Ni$_{10}$SnP$_{3}$,0,eV/atom,
LiIrF$_{6}$,0.0,eV/atom,
Cs$_{2}$PbO$_{3}$,1.3724,eV/atom,
CsPbBr$_{3}$,2.4844999999999997,eV/atom,
Rb$_{2}$Zn$_{3}$(P$_{2}$O$_{7}$)$_{2}$,4.4147,eV/atom,
BaEu$_{2}$CoO$_{5}$,0.0,eV/atom,
RbNbO$_{3}$,3.3068,eV/atom,
SrHg$_{2}$(ClO)$_{2}$,1.6485,eV/atom,
ThSe$_{3}$,1.2608000000000001,eV/atom,
ErAgTe$_{2}$,0.8967,eV/atom,
K$_{3}$V$_{3}$(AsO$_{7}$)$_{2}$,2.8636,eV/atom,
TiSe,0.0,eV/atom,
Pr$_{2}$CuO$_{4}$,0.0,eV/atom,
HoNi$_{4}$Au,0.0,eV/atom,
PrSiPt,0.0,eV/atom,
K$_{2}$Ti$_{2}$O$_{5}$,3.2268,eV/atom,
Li$_{2}$CdGe,0,eV/atom,
Na$_{2}$SiH$_{16}$O$_{11}$,4.4711,eV/atom,
Rb$_{3}$CuO$_{2}$,1.4327,eV/atom,
HfGa$_{2}$Co,0.0,eV/atom,
K$_{2}$Nd$_{2}$IrO$_{7}$,0.2898999999999998,eV/atom,
K$_{2}$PtSe$_{2}$,0.9345000000000001,eV/atom,
CePO$_{4}$,0.0,eV/atom,
BiPPbO$_{5}$,3.3519000000000005,eV/atom,
ThRh$_{3}$,0.0,eV/atom,
Ti$_{2}$H,0.0,eV/atom,
ErAlGe,0.0,eV/atom,
La$_{3}$S$_{3}$N,1.3357,eV/atom,
K$_{2}$Ca$_{3}$Si$_{3}$O$_{10}$,4.1202000000000005,eV/atom,
ThN,0.0,eV/atom,
VInO$_{4}$,2.9692999999999996,eV/atom,
K$_{2}$CoO$_{2}$,0.6702000000000001,eV/atom,
HoGa$_{2}$Pd,0.0,eV/atom,
KSiSbO$_{5}$,2.8079,eV/atom,
PdSCl,1.1314,eV/atom,
RbSnS$_{2}$,0.0,eV/atom,
Ba$_{3}$(LiAs)$_{4}$,0.2653000000000003,eV/atom,
Er(PO$_{3}$)$_{3}$,5.748200000000001,eV/atom,
Cr$_{2}$ReO$_{6}$,0.11210000000000075,eV/atom,
SiHgP$_{2}$,0.0,eV/atom,
KCS(OF)$_{3}$,5.2646,eV/atom,
SiNi$_{2}$,0.0,eV/atom,
RbNaMo$_{3}$O$_{10}$,2.9354999999999998,eV/atom,
SiB$_{11}$H$_{10}$C$_{4}$F$_{11}$,3.4362,eV/atom,
Ce(SnPt)$_{2}$,0.0,eV/atom,
Ca$_{7}$Sn$_{6}$,0.0,eV/atom,
Na$_{2}$GeTeO$_{6}$,2.6512000000000002,eV/atom,
HfFeP,0.0,eV/atom,
PrBi$_{2}$ClO$_{4}$,1.1244,eV/atom,
Sr$_{2}$Mn$_{2}$O$_{5}$,0.4341000000000004,eV/atom,
Rb$_{2}$CoH$_{8}$(CO$_{5}$)$_{2}$,2.9036999999999997,eV/atom,
HOs$_{6}$C$_{18}$S$_{2}$O$_{19}$,0.1725,eV/atom,
FeHO$_{2}$,1.8956999999999997,eV/atom,
Ca$_{5}$Pb$_{3}$,0.0,eV/atom,
La$_{2}$Te$_{3}$MoO$_{12}$,3.581,eV/atom,
Cs$_{2}$Se$_{3}$,0.7396,eV/atom,
ScMn$_{2}$,0.0,eV/atom,
Gd(SiAu)$_{2}$,6.00000000000378E-4,eV/atom,
Zn$_{3}$Fe$_{2}$(SeO$_{3}$)$_{6}$,2.4788,eV/atom,
PH$_{12}$C$_{2}$N$_{6}$O$_{3}$F,4.9350000000000005,eV/atom,
MnGeRh,0.0,eV/atom,
UP$_{3}$H$_{10}$BrO$_{8}$,0.3799000000000001,eV/atom,
Dy$_{2}$(WO$_{4}$)$_{3}$,4.0894,eV/atom,
Yb$_{2}$Ga,0.0,eV/atom,
Mg$_{5}$Rh$_{2}$,0.0,eV/atom,
Tm$_{10}$In$_{20}$Co$_{9}$,0.0,eV/atom,
TcB,1.4291,eV/atom,
Y(BRu)$_{4}$,0.0,eV/atom,
Fe$_{2}$O$_{3}$,1.4108999999999998,eV/atom,
RbHg$_{2}$,0.0,eV/atom,
K$_{4}$PbO$_{3}$,2.279,eV/atom,
NdH$_{2}$ClO$_{2}$,4.8667,eV/atom,
K$_{2}$CdN$_{12}$,2.911,eV/atom,
La$_{5}$Sn$_{4}$,0.0,eV/atom,
ReO$_{2}$F$_{3}$,3.335,eV/atom,
TbInPt,0.0,eV/atom,
Na$_{5}$P$_{3}$O$_{10}$,4.5621,eV/atom,
BaRuO$_{3}$,0.0,eV/atom,
Sm(MnCo$_{2}$)$_{4}$,0.0,eV/atom,
Rb$_{2}$Pd$_{3}$Se$_{4}$,0.9186999999999999,eV/atom,
Rb$_{2}$TbO$_{3}$,0.0,eV/atom,
Tb$_{7}$NiI$_{12}$,0.0,eV/atom,
Nd$_{2}$Zr$_{2}$O$_{7}$,0.0,eV/atom,
SmB$_{2}$Ir$_{3}$,0.0,eV/atom,
BeF$_{2}$,8.3241,eV/atom,
CeZnRh,0.0,eV/atom,
Nb$_{3}$(Fe$_{10}$B$_{3}$)$_{2}$,0.0,eV/atom,
Co,0.0,eV/atom,
Ta$_{11}$(FeSe$_{4}$)$_{2}$,0.0,eV/atom,
Sn(SeO$_{3}$)$_{2}$,2.5822000000000003,eV/atom,
Rb$_{2}$PH$_{3}$SeO$_{8}$,4.077500000000001,eV/atom,
AlSBr$_{3}$,0.20439999999999992,eV/atom,
Ba$_{4}$Mn$_{3}$O$_{10}$,1.0699999999999998,eV/atom,
YCoSn,0.0,eV/atom,
Ag(BCl)$_{6}$,2.6955,eV/atom,
Dy$_{2}$AlCo$_{2}$,0.0,eV/atom,
PrAu,0.0,eV/atom,
Ba$_{2}$Ni$_{7}$F$_{18}$,4.8408,eV/atom,
Sn$_{7}$Ir$_{3}$,0.0,eV/atom,
V$_{2}$CoSe$_{4}$,0.0,eV/atom,
InTeBr,1.5714000000000001,eV/atom,
Fe$_{3}$Sn,0.0,eV/atom,
Mo$_{2}$As$_{3}$,0.0,eV/atom,
HoAl$_{2}$Ni,0.0,eV/atom,
AlFeCo$_{2}$,0.0,eV/atom,
EuHCl,0.30799999999999983,eV/atom,
Er(BO$_{2}$)$_{3}$,5.668000000000001,eV/atom,
KDyS$_{2}$,2.3354,eV/atom,
U$_{2}$SnRu$_{2}$,0.0,eV/atom,
La$_{4}$Al$_{5}$Br$_{2}$,0.0,eV/atom,
Sm$_{3}$GaC,0.0,eV/atom,
Mn$_{2}$CuSb,0.0,eV/atom,
HoNi$_{4}$B,0,eV/atom,
SiP$_{2}$O$_{7}$,5.4559999999999995,eV/atom,[Si+4].O=P([O-])([O-])OP(=O)([O-])[O-]
UGa$_{3}$,0.0,eV/atom,
K$_{2}$LaH$_{4}$N$_{5}$O$_{17}$,3.2718,eV/atom,
AgClO$_{4}$,2.6059,eV/atom,
LaCrGe$_{3}$,0.0,eV/atom,
Nd(CrSi)$_{2}$,0.0,eV/atom,
Rb$_{3}$Sb,0.08969999999999989,eV/atom,
MnBiSe$_{2}$I,0.7160000000000002,eV/atom,
NaTa$_{3}$N$_{5}$,0.0,eV/atom,
K$_{2}$SrP$_{2}$O$_{7}$,4.7677,eV/atom,
CdBiSe$_{2}$I,1.2705000000000002,eV/atom,
Ba$_{21}$Ge$_{2}$O$_{5}$,0.0,eV/atom,
Cs$_{3}$Sb$_{2}$Cl$_{9}$,2.6322,eV/atom,
YGe$_{3}$,0.0,eV/atom,
Tm(CuSi)$_{2}$,0.0,eV/atom,
LiBeBO$_{3}$,6.0842,eV/atom,
I$_{5}$N$_{2}$,0.16889999999999994,eV/atom,
TaNiB,0.0,eV/atom,
Fe$_{3}$O$_{4}$,0.5828999999999995,eV/atom,
Nb$_{3}$B$_{2}$,0.0,eV/atom,
TbAl$_{2}$Ni,0.0,eV/atom,
PrMnGe,0.0,eV/atom,
Ba$_{4}$Os$_{6}$ClO$_{18}$,0.0,eV/atom,
Tl$_{3}$SiTe$_{3}$,1.0854,eV/atom,
EuMgSn,0.0,eV/atom,
V$_{3}$Ag$_{2}$TeS$_{6}$,0.0,eV/atom,
Al$_{2}$S$_{3}$,1.0251,eV/atom,
K$_{2}$MnH$_{4}$(SO$_{5}$)$_{2}$,4.2109,eV/atom,
RhBr$_{3}$,1.2551,eV/atom,
Er$_{2}$InNi$_{2}$,0.0,eV/atom,
Rh$_{3}$(PbSe)$_{2}$,0.0,eV/atom,
BaCuSb,0,eV/atom,
Rb$_{2}$Sn(H$_{2}$N)$_{6}$,2.5295,eV/atom,
NbPO$_{5}$,2.1631,eV/atom,
SrHCl,4.044700000000001,eV/atom,
SrRhO$_{3}$,0.0,eV/atom,
Nb$_{2}$Tl$_{5}$S$_{4}$Cl$_{9}$,1.6261,eV/atom,
ReO$_{2}$F$_{3}$,3.2953,eV/atom,
Mg$_{3}$(HO$_{2}$)$_{2}$,3.7709,eV/atom,
Co$_{3}$H$_{2}$Se$_{3}$O$_{10}$,2.486,eV/atom,
SrV$_{2}$ZnO$_{7}$,2.7793,eV/atom,
Nd$_{3}$Zn$_{11}$,0.0,eV/atom,
Cu$_{3}$Se$_{2}$,0.10210000000000008,eV/atom,
HRu$_{6}$C$_{16}$NO$_{16}$,1.9967,eV/atom,
Rb$_{2}$Hg(BSe)$_{9}$,1.8296999999999999,eV/atom,
Na$_{3}$Co(NO$_{2}$)$_{6}$,2.4684,eV/atom,
La$_{2}$InPd$_{2}$,0.0,eV/atom,
EuIn$_{2}$Au,0.0,eV/atom,
VPd$_{2}$,0.0,eV/atom,
Nb$_{4}$CuSi,0.0,eV/atom,
SmMg$_{2}$Ag,0.0,eV/atom,
Fe(BMo)$_{2}$,0.0,eV/atom,
BaGeO$_{3}$,3.5403000000000002,eV/atom,
HgF,1.7582,eV/atom,
La$_{7}$Ni$_{3}$,0.0,eV/atom,
CdCl$_{2}$,3.5214,eV/atom,
NaAs,0.0,eV/atom,
GdN,0.0,eV/atom,
CdI$_{2}$,2.3523,eV/atom,
NaN$_{3}$,0.0,eV/atom,[Na].N.N.N
Ce(IO$_{3}$)$_{3}$,0.08059999999999956,eV/atom,
TmIn$_{5}$Co,0.0,eV/atom,
As$_{2}$W,0.0,eV/atom,
Rb$_{3}$PbCl$_{5}$,4.2828,eV/atom,
Al$_{3}$Cu$_{2}$,0.0,eV/atom,
K$_{2}$NaInSb$_{2}$,0.5808,eV/atom,
Sr$_{8}$Si$_{2}$PtO$_{14}$,2.2539999999999996,eV/atom,
Cs$_{3}$Tb$_{10}$C$_{4}$Cl$_{21}$,0.6788000000000003,eV/atom,
La$_{3}$(GePd)$_{4}$,0.0051000000000005485,eV/atom,
Pr$_{2}$InGe$_{2}$,0.0,eV/atom,
Ba$_{2}$InBiS$_{5}$,1.4485000000000006,eV/atom,
Cu$_{2}$GeO$_{4}$,0.0,eV/atom,
LuCuAs$_{2}$,0.0,eV/atom,
CsAg$_{2}$(B$_{5}$O$_{8}$)$_{3}$,3.5835999999999997,eV/atom,
MgTa$_{2}$O$_{6}$,2.8397,eV/atom,
SmGa,0.0,eV/atom,
BaAlGeF,0.0,eV/atom,
CsLiBr$_{2}$,4.1375,eV/atom,
K$_{2}$Zn(CN)$_{4}$,6.050800000000001,eV/atom,
Si(H$_{3}$C)$_{2}$,3.5705999999999998,eV/atom,
SrLiCoF$_{6}$,2.1993,eV/atom,
CsAuN$_{12}$,1.4521000000000002,eV/atom,
DyFeC$_{2}$,0.0,eV/atom,
Ce$_{6}$S$_{4}$BrN$_{3}$,0.0,eV/atom,
BaMo$_{2}$P$_{3}$O$_{14}$,1.8054999999999999,eV/atom,
Na$_{2}$HgPb,0.0,eV/atom,
BaPrO$_{3}$,0.0,eV/atom,
In$_{2}$Ag$_{3}$(PO$_{4}$)$_{3}$,0.9885000000000006,eV/atom,
CeH$_{16}$C$_{4}$Cl$_{3}$O$_{4}$,0.30999999999999983,eV/atom,
BaSn,0.0,eV/atom,
Sb$_{2}$Te$_{3}$MoC$_{4}$(OF$_{3}$)$_{4}$,2.0766,eV/atom,
Zn(GaO$_{2}$)$_{2}$,2.3104999999999998,eV/atom,[Zn+2].O=C([O-])C1=CC(O)=C(O)C(O)=C1.O=C([O-])C1=CC(O)=C(O)C(O)=C1
TbTiGe,0.0,eV/atom,
V$_{2}$O$_{5}$,2.5000999999999998,eV/atom,
CaAs$_{2}$(HO$_{2}$)$_{4}$,3.7749,eV/atom,
Y$_{3}$Ni,0.027900000000000258,eV/atom,
DyCuS$_{2}$,1.6186999999999996,eV/atom,
SmMgPt,0.0,eV/atom,
Y$_{2}$Au,0.0,eV/atom,
NdGa$_{6}$,0.0,eV/atom,
Na$_{2}$TeO$_{4}$,1.8037,eV/atom,
Ho$_{2}$Ge$_{6}$Pd,0.0,eV/atom,
Lu$_{2}$WO$_{6}$,3.612,eV/atom,
RbSbO$_{2}$,2.2517,eV/atom,
PH$_{4}$Br,3.9898000000000002,eV/atom,[Br-].[PH4+]
Ni$_{2}$H,0.0,eV/atom,
TiMnO$_{3}$,1.8848000000000003,eV/atom,
YbMgPd,0.0,eV/atom,
Ce$_{3}$PbC,0.0,eV/atom,
Cs$_{3}$BAs$_{2}$,1.4870999999999999,eV/atom,
K$_{2}$V$_{2}$P$_{4}$O$_{15}$,2.8177000000000003,eV/atom,
Ba$_{3}$Sn$_{5}$,0.0,eV/atom,
ScCoGe$_{2}$,0.0,eV/atom,
TeH$_{18}$(Br$_{3}$O$_{4}$)$_{2}$,1.9244999999999999,eV/atom,
TmSi$_{2}$,0.0,eV/atom,
AlPd,0.0,eV/atom,
GdCu$_{4}$Au,0.0,eV/atom,
Pr$_{3}$GaC,0.0,eV/atom,
Mn$_{3}$W$_{3}$C,0.0,eV/atom,
Mg$_{7}$Nb,0.0,eV/atom,
Na$_{3}$SrLaZnSi$_{6}$O$_{17}$,4.5776,eV/atom,
Ho$_{2}$Pt,0.0,eV/atom,
KCu$_{2}$AsS$_{3}$,1.1635999999999997,eV/atom,
Rb$_{2}$Pd$_{3}$S$_{4}$,1.1973999999999998,eV/atom,
NdFeSi,0.0,eV/atom,
CaU$_{2}$Si$_{2}$H$_{12}$O$_{17}$,1.9307,eV/atom,
Rb(FeAs)$_{2}$,0.0,eV/atom,
InI$_{3}$,2.2746,eV/atom,
Yb$_{2}$In$_{13}$Pd$_{6}$,0.0,eV/atom,
CaAl$_{2}$(SiO$_{4}$)$_{2}$,4.8122,eV/atom,
ZnS,2.0206999999999997,eV/atom,
DyFe$_{2}$,0.0,eV/atom,
Re$_{5}$Si$_{3}$,0.0,eV/atom,
Cs$_{2}$NaCeCl$_{6}$,0.32430000000000003,eV/atom,
Ca$_{3}$VN$_{3}$,0.7644999999999995,eV/atom,
SnH$_{4}$,0.0,eV/atom,
KCu$_{3}$Ag(MoO$_{4}$)$_{4}$,0.39769999999999994,eV/atom,
Er$_{2}$Al,0.0,eV/atom,
BaTiO$_{3}$,1.7270000000000003,eV/atom,
RbSn$_{2}$Br$_{5}$,2.3888999999999996,eV/atom,
Ti$_{4}$FeBi$_{2}$,0.0,eV/atom,
SrFeO$_{3}$,0.0,eV/atom,
Er$_{3}$Ga$_{8}$Au$_{3}$,0.0,eV/atom,
ScSnAu,0.0,eV/atom,
K$_{4}$CO$_{4}$,2.3359,eV/atom,
H$_{10}$C$_{3}$NClO$_{4}$,5.6154,eV/atom,
Ca$_{2}$MgPt$_{2}$,0.0,eV/atom,
Ca$_{3}$Ga$_{2}$(GeO$_{4}$)$_{3}$,2.9786,eV/atom,
Pt$_{5}$Se$_{4}$,0.0,eV/atom,
EuGa$_{2}$,0.0,eV/atom,
Nd(CuO$_{2}$)$_{2}$,0.0,eV/atom,
CeTlSe$_{2}$,0.0,eV/atom,
LiAl(SiO$_{3}$)$_{2}$,5.303800000000001,eV/atom,
Si$_{3}$Cl$_{8}$,4.7516,eV/atom,
NdBi$_{2}$IO$_{4}$,1.2653999999999996,eV/atom,
Li$_{2}$CrO$_{4}$,2.6021,eV/atom,
Tm$_{2}$Zn$_{17}$,0.0,eV/atom,
YbAu$_{3}$,0.0,eV/atom,
K$_{2}$PbBr$_{4}$O,0.7369,eV/atom,
P$_{3}$Ru,1.1445999999999996,eV/atom,
Al$_{2}$Cd$_{3}$(SiO$_{4}$)$_{3}$,2.9522999999999997,eV/atom,
TmMn$_{2}$,0.0,eV/atom,
NaSi$_{6}$,0.0,eV/atom,
BaY$_{2}$CoO$_{5}$,1.8631000000000002,eV/atom,
Ti(CrS$_{2}$)$_{2}$,0.0,eV/atom,
Ho$_{2}$Ni$_{2}$Pb,0.0,eV/atom,
ZnMo(NO$_{2}$)$_{4}$,0.05270000000000019,eV/atom,
Dy$_{2}$WO$_{6}$,3.2102,eV/atom,
NaLa(SO$_{4}$)$_{2}$,4.1818,eV/atom,
SmCu,0.0,eV/atom,
Zr$_{3}$O,0.0,eV/atom,
La(Co$_{2}$B)$_{6}$,0.0,eV/atom,
Rb$_{3}$Cu$_{5}$O$_{4}$,1.5344999999999998,eV/atom,
K$_{2}$Nb$_{3}$Cl$_{7}$O$_{5}$,2.2949,eV/atom,
CuAs$_{2}$,0.0,eV/atom,
KEuSiS$_{4}$,0.2668999999999999,eV/atom,
Cr$_{2}$CdSe$_{4}$,0.33000000000000007,eV/atom,
KSb(PSe$_{3}$)$_{2}$,1.7976999999999999,eV/atom,
Tb$_{5}$Bi$_{3}$,0.0,eV/atom,
BaMnP$_{2}$O$_{7}$,4.2123,eV/atom,
K$_{2}$CoH$_{4}$(SeO$_{5}$)$_{2}$,2.9347000000000003,eV/atom,
Ce(Re$_{2}$Si)$_{2}$,0.0,eV/atom,
MgS,3.3692,eV/atom,
Cs$_{2}$NbF$_{6}$,0.23919999999999986,eV/atom,
Sm(SiRh)$_{2}$,0.0,eV/atom,
ErHg$_{3}$,0.0,eV/atom,
Ba$_{2}$PrRuO$_{6}$,0.13349999999999973,eV/atom,
BaLi$_{2}$P$_{2}$O$_{7}$,5.361800000000001,eV/atom,
ErP$_{5}$O$_{14}$,5.2303,eV/atom,
Nb$_{4}$N$_{3}$,0.0,eV/atom,
CdHSeNO$_{6}$,0.0,eV/atom,
RbScAs$_{2}$O$_{7}$,3.5429,eV/atom,
Ca$_{2}$FeOsO$_{6}$,0.0,eV/atom,
Nd(GeIr)$_{2}$,0.0,eV/atom,
Cd$_{2}$AsCl$_{2}$,1.0820000000000003,eV/atom,
Sr$_{2}$MnCuSO$_{3}$,0.0,eV/atom,
Mg$_{2}$VBiO$_{6}$,3.1885000000000003,eV/atom,
Mn(BiSe$_{2}$)$_{2}$,0.6391,eV/atom,
Ba(MgP)$_{2}$,1.1366,eV/atom,
Cs$_{2}$MnBi$_{2}$S$_{5}$,1.0505999999999998,eV/atom,
Na$_{3}$Sb,0.39859999999999984,eV/atom,
CsC$_{2}$S$_{2}$N(O$_{2}$F$_{3}$)$_{2}$,6.168900000000001,eV/atom,[Cs+].O=S(=O)([N-]S(=O)(=O)C(F)(F)F)C(F)(F)F
SbS$_{4}$N$_{4}$Cl$_{5}$,1.6012,eV/atom,
Na$_{2}$Cu$_{3}$H$_{8}$(CO$_{2}$)$_{8}$,0.1621,eV/atom,
As$_{2}$W$_{2}$O$_{11}$,3.3384,eV/atom,
GeH$_{12}$(NF$_{2}$)$_{4}$,2.4704,eV/atom,
RbTmO$_{2}$,3.6638,eV/atom,
SrLi$_{2}$Ti$_{6}$O$_{14}$,2.8389000000000006,eV/atom,
LaSiAs$_{3}$,0.0,eV/atom,
Rb$_{3}$NaTiO$_{4}$,3.2452,eV/atom,
Nb$_{2}$SnC,0.0,eV/atom,
Sr(CuSn)$_{2}$,0.0,eV/atom,
SmC$_{2}$,0.0,eV/atom,
Ca$_{7}$(H$_{6}$Cl)$_{2}$,3.7127,eV/atom,
V$_{2}$CoH$_{4}$C$_{4}$(NO$_{3}$)$_{2}$,2.1384,eV/atom,
Yb$_{2}$Ge$_{6}$Pd,0.0,eV/atom,
Te$_{3}$W$_{2}$Se$_{4}$(Cl$_{4}$O)$_{2}$,1.0027,eV/atom,
LaVGe$_{3}$,0.0,eV/atom,
PRu$_{5}$C$_{16}$(O$_{5}$F)$_{3}$,1.6922000000000001,eV/atom,
Y(AlCl$_{4}$)$_{3}$,4.0291999999999994,eV/atom,
SiO$_{2}$,0.5029000000000001,eV/atom,
KCuO,1.1815000000000002,eV/atom,
H$_{21}$OsC$_{9}$NO$_{7}$,2.2033,eV/atom,
Eu$_{2}$PBr,0.0,eV/atom,
NdFe$_{3}$(BO$_{3}$)$_{4}$,2.3192999999999997,eV/atom,
Ag$_{2}$TeS$_{3}$,1.2999,eV/atom,
LiTlPd$_{2}$,0.0,eV/atom,
NaV(NF$_{3}$)$_{2}$,1.6321999999999999,eV/atom,
CeFeSb$_{2}$,0.0,eV/atom,
Na$_{2}$AgSb,0.6588000000000003,eV/atom,
Gd(PO$_{3}$)$_{3}$,3.4526,eV/atom,
RbBa$_{4}$Sb$_{3}$O,0.9396,eV/atom,
NaZrCuS$_{3}$,0.5438000000000001,eV/atom,
Zr$_{3}$(CuSi)$_{4}$,0.0,eV/atom,
La$_{4}$C$_{2}$Cl$_{5}$,0.0,eV/atom,
K$_{2}$WO$_{4}$,4.384399999999999,eV/atom,
LiVAsO$_{5}$,1.7409999999999999,eV/atom,
SrV$_{13}$O$_{18}$,0.0,eV/atom,
Zr$_{2}$FeH$_{5}$,0.0,eV/atom,
ZnGaNO,0.31420000000000003,eV/atom,
CdSe$_{2}$O$_{5}$,2.8994,eV/atom,
SiSbPt$_{5}$,0.0,eV/atom,
ZrAlNi,0.0,eV/atom,
PuC,0.0,eV/atom,
ZrHg$_{3}$(SeCl$_{3}$)$_{2}$,2.5681000000000003,eV/atom,
K$_{2}$MgH$_{12}$(SO$_{7}$)$_{2}$,5.196,eV/atom,
Nb$_{3}$Si$_{2}$,0.0,eV/atom,
GePb$_{3}$O$_{5}$,2.2715,eV/atom,
CaMnSi,0.0,eV/atom,
ErZnPt,0.0,eV/atom,
Ca$_{2}$GeO$_{4}$,3.6002,eV/atom,
La$_{23}$Cd$_{4}$Pt$_{7}$,0.0,eV/atom,
PrCuS$_{2}$,1.0668000000000006,eV/atom,
RbTiS$_{2}$,0.010200000000000209,eV/atom,
Cs$_{3}$GeAsSe$_{5}$,1.7736999999999998,eV/atom,
Dy(CuGe)$_{2}$,0.0,eV/atom,
CaSiNi$_{2}$,0.0,eV/atom,
FeCl$_{2}$,0.6108000000000002,eV/atom,
Sr$_{8}$Tl$_{3}$Cr(CuO$_{5}$)$_{4}$,0.0,eV/atom,
LuNi$_{2}$Sn,0.0,eV/atom,
Sr$_{2}$CuMoO$_{6}$,0.0,eV/atom,
SmSi,0.0,eV/atom,
K$_{3}$P$_{2}$H$_{7}$O$_{10}$,4.8991,eV/atom,
SmZnPO,1.2904999999999998,eV/atom,
Na$_{2}$SO$_{3}$,4.908899999999999,eV/atom,
Rb$_{6}$Si$_{10}$O$_{23}$,4.2187,eV/atom,
La(P$_{3}$Ru)$_{4}$,0.0,eV/atom,
PrNiO$_{3}$,0.0,eV/atom,
Rb$_{2}$FeI$_{4}$,0.0,eV/atom,
HoHg,0.0,eV/atom,
LaGaS$_{3}$,2.2220000000000004,eV/atom,
Co$_{2}$SiO$_{4}$,0.0,eV/atom,
K$_{3}$Ta$_{2}$S$_{11}$,1.7459000000000002,eV/atom,
BaZnSO,2.2347,eV/atom,
FePCl$_{8}$,1.4417,eV/atom,
La$_{2}$Cu(SeO$_{3}$)$_{4}$,0.4289999999999998,eV/atom,
Th$_{2}$Al,0.0,eV/atom,
BaAg(PO$_{3}$)$_{3}$,3.1971,eV/atom,
ReN$_{2}$(OF$_{4}$)$_{2}$,0.1825,eV/atom,
Ti$_{2}$Sn,0.0,eV/atom,
TlH$_{12}$C$_{4}$Br$_{4}$N$_{5}$,2.0259,eV/atom,
LaGe$_{5}$,0.0,eV/atom,
Gd(Ni$_{2}$B)$_{6}$,0.0,eV/atom,
Hg(BiS$_{2}$)$_{2}$,1.2356000000000003,eV/atom,
Sr$_{2}$FeClO$_{3}$,1.1226000000000003,eV/atom,
LiTaSiO$_{5}$,3.7965,eV/atom,
K$_{3}$VC$_{5}$N$_{5}$O,2.8885,eV/atom,
ZrCoF$_{6}$,0.0,eV/atom,
Pr$_{3}$Co,0.0,eV/atom,
Na$_{2}$Al$_{2}$As$_{3}$,1.1771000000000003,eV/atom,
MgSiO$_{3}$,4.9229,eV/atom,
Yb$_{4}$As$_{2}$O,0.9593000000000003,eV/atom,
Nb$_{2}$P$_{4}$O$_{15}$,3.2843,eV/atom,
RbTaPS$_{6}$,1.7240000000000002,eV/atom,
Ba$_{2}$MnMoO$_{6}$,1.2569,eV/atom,
ErSi$_{2}$Rh$_{3}$,0.0,eV/atom,
Ca$_{2}$Os$_{2}$O$_{7}$,0.0,eV/atom,
CsPbI$_{3}$,1.484,eV/atom,
Yb$_{2}$CdSb$_{2}$,0.009800000000000253,eV/atom,
Co$_{3}$B,0.0,eV/atom,
HgAsPd$_{5}$,0.0,eV/atom,
Tb(NiSb)$_{2}$,0.0,eV/atom,
Cs$_{3}$BO$_{3}$,2.4689000000000005,eV/atom,
LiB(SO$_{4}$)$_{2}$,6.3873999999999995,eV/atom,
LiCa$_{9}$Mn(PO$_{4}$)$_{7}$,4.264200000000001,eV/atom,
CuH$_{5}$Pb$_{4}$SO$_{11}$,0.43710000000000004,eV/atom,
KICl$_{2}$,2.3655,eV/atom,
HfTl$_{8}$(MoO$_{4}$)$_{6}$,3.4417000000000004,eV/atom,
Al$_{12}$Tc,0.0,eV/atom,
Ta$_{4}$FeS$_{8}$,0.0,eV/atom,
VP$_{2}$(HO)$_{6}$,2.8845,eV/atom,
VRh$_{3}$,0.0,eV/atom,
Ca$_{3}$Mn$_{2}$(GeO$_{4}$)$_{3}$,1.0177,eV/atom,
ZnS,2.0408999999999997,eV/atom,
YMn$_{4}$(CuO$_{4}$)$_{3}$,0.0,eV/atom,
LiBr,4.9234,eV/atom,
Ca$_{3}$N$_{2}$,1.2985999999999995,eV/atom,
BiSe,0.0,eV/atom,
K$_{2}$Sm$_{2}$As$_{2}$Se$_{9}$,1.1005,eV/atom,
Nb$_{6}$Co$_{16}$Ge$_{7}$,0.0,eV/atom,
LiPr$_{2}$C$_{2}$N$_{4}$F$_{3}$,3.7057999999999995,eV/atom,
Hg$_{2}$Mo$_{2}$O$_{7}$,2.2203,eV/atom,
Nd$_{2}$SiSeO$_{4}$,2.6009,eV/atom,
Na$_{4}$CO$_{4}$,1.7704000000000002,eV/atom,
K$_{2}$W$_{2}$O$_{7}$,2.4572000000000003,eV/atom,
Mg$_{3}$Bi$_{2}$,0.0,eV/atom,
NbZn$_{3}$,0.0,eV/atom,
H$_{16}$C$_{3}$NF$_{7}$,7.3689,eV/atom,
CeCoSi$_{2}$,0.0,eV/atom,
Na$_{3}$P$_{2}$H$_{4}$O$_{7}$,3.5798999999999994,eV/atom,
Ce$_{9}$B$_{3}$C$_{6}$Br$_{5}$,0.0,eV/atom,
Nd(BIr)$_{4}$,0.0,eV/atom,
Pr(HO)$_{3}$,3.7452999999999994,eV/atom,
O$_{2}$,1.5484,eV/atom,OO
Sc,0.0,eV/atom,
MgH$_{20}$S$_{2}$(NO$_{7}$)$_{2}$,5.2087,eV/atom,
Co(BMo)$_{2}$,0.0,eV/atom,
Na$_{2}$V$_{3}$O$_{7}$,2.5094000000000003,eV/atom,
C,2.5995,eV/atom,[C]
SbPt,0.0,eV/atom,
SbTe$_{7}$SXeCl(OF$_{4}$)$_{9}$,1.5847000000000002,eV/atom,
CaO,3.1205999999999996,eV/atom,
In$_{2}$(Ni$_{7}$B$_{2}$)$_{3}$,0.024699999999999278,eV/atom,
Fe$_{3}$(PO$_{4}$)$_{2}$,3.4932,eV/atom,
Ba$_{2}$CeTaO$_{6}$,0.0,eV/atom,
Lu$_{2}$Zn$_{17}$,0.0,eV/atom,
Mg$_{6}$Si$_{7}$Ni$_{16}$,0.0,eV/atom,
BaLa(BiS$_{3}$)$_{2}$,0.6691000000000003,eV/atom,
Cd$_{3}$AsCl$_{3}$,1.4485,eV/atom,
U$_{6}$Ni,0.0,eV/atom,
LiZn,0.0,eV/atom,
Mg$_{2}$SiO$_{4}$,4.587400000000001,eV/atom,
U$_{2}$TiH$_{3}$,0.0,eV/atom,
RbTeHOF$_{4}$,4.8825,eV/atom,
CaCo(SiO$_{3}$)$_{2}$,2.6563,eV/atom,
Hf$_{2}$H$_{2}$Pd,0.0,eV/atom,
ScAlCu$_{2}$,0.0,eV/atom,
NaLaP$_{2}$O$_{7}$,4.4754000000000005,eV/atom,
Co$_{9}$Se$_{8}$,0.0,eV/atom,
Eu(CdP)$_{2}$,0.0,eV/atom,
Co$_{2}$Ge,0.0,eV/atom,
Zn(CrSe$_{2}$)$_{2}$,0.044099999999999806,eV/atom,
ZnCrH$_{28}$C$_{6}$N$_{12}$Cl$_{5}$O$_{8}$,3.4335,eV/atom,
MnS,0.0,eV/atom,
Nd$_{3}$Rh$_{2}$,0.0,eV/atom,
CsHSeO$_{4}$,3.6209000000000002,eV/atom,
LaNi,0.0,eV/atom,
BaFe$_{2}$S$_{3}$,0.0,eV/atom,
Al$_{2}$P$_{2}$H$_{8}$C$_{2}$NO$_{8}$F,5.4001,eV/atom,
AlTeCl$_{7}$,3.1496,eV/atom,
BrF$_{5}$,3.4378,eV/atom,FBr(F)(F)(F)F
Li$_{6}$CaCeO$_{6}$,2.4639999999999995,eV/atom,
YBPd$_{3}$,0.0,eV/atom,
Sn$_{2}$H$_{10}$C$_{4}$N$_{2}$O$_{9}$F$_{2}$,2.4831,eV/atom,
U$_{3}$Ag$_{6}$Mo$_{5}$O$_{27}$,1.3867000000000003,eV/atom,
MnH$_{10}$SeO$_{9}$,2.6067,eV/atom,
LiCo$_{2}$P$_{3}$O$_{10}$,2.7489000000000003,eV/atom,
Al$_{2}$Pt,0.0,eV/atom,
As$_{3}$Pb$_{5}$ClO$_{9}$,2.6399000000000004,eV/atom,
Na$_{6}$U(Mo$_{2}$O$_{9}$)$_{2}$,2.2362,eV/atom,
AgSbS$_{2}$,1.3685000000000005,eV/atom,
Nd$_{2}$Ge$_{5}$Rh$_{3}$,0.0,eV/atom,
Pr(CoAs)$_{2}$,0.0,eV/atom,
Tm(Al$_{2}$Cu)$_{4}$,0.0,eV/atom,
MoAs$_{2}$O$_{7}$,2.5873,eV/atom,
Pr$_{2}$Mo$_{2}$C$_{3}$,0.0,eV/atom,