formula,Property band_gap,Property band_gap units,Property SMILES
Sr$_{17}$(Li$_{2}$Hg$_{3}$)$_{3}$,0.0,eV/atom,
K$_{2}$CoSiO$_{4}$,2.8553000000000006,eV/atom,
SrTb$_{2}$Sc$_{2}$O$_{7}$,3.5172,eV/atom,
BiI$_{3}$,2.4854,eV/atom,
Al$_{3}$Pb$_{5}$F$_{19}$,5.137600000000001,eV/atom,
GdInAu,0.0,eV/atom,
Rb$_{2}$PtCl$_{6}$,1.9363000000000001,eV/atom,
ThSeO,0.7690000000000001,eV/atom,
ErCd$_{2}$,0.0,eV/atom,
PuBrO,0.0,eV/atom,
CsGeCl$_{3}$,2.6417,eV/atom,
Rb$_{3}$H$_{5}$Pd,2.7285,eV/atom,
VCuHPbO$_{5}$,0.1259999999999999,eV/atom,
Ti(FeGe)$_{6}$,0.008199999999999541,eV/atom,
BaSnF$_{4}$,3.6679000000000004,eV/atom,
KTl,0.0,eV/atom,
LuSnIr,0.0,eV/atom,
Th(Al$_{2}$Fe)$_{4}$,0.0,eV/atom,
LiAl(SiO$_{3}$)$_{2}$,4.9005,eV/atom,
HfI$_{4}$,2.3528000000000002,eV/atom,
KC$_{4}$N$_{3}$,3.7393,eV/atom,
K$_{3}$SnHF$_{8}$,5.1576,eV/atom,
KB(CO$_{2}$)$_{4}$,3.4882999999999997,eV/atom,
LiGa(SiO$_{3}$)$_{2}$,4.3095,eV/atom,
FePO$_{4}$,2.4856,eV/atom,
ZnH$_{6}$C$_{2}$(NCl$_{2}$)$_{2}$,0.0,eV/atom,
Tb$_{16}$B$_{4}$Br$_{23}$,0.008199999999999985,eV/atom,
K$_{3}$Co(CN)$_{6}$,3.8399,eV/atom,
U(CoB)$_{4}$,0.0,eV/atom,
Ca$_{2}$GeS$_{4}$,2.5134,eV/atom,
Sn,0.0,eV/atom,
BaMo$_{2}$(PO$_{4}$)$_{3}$,0.0,eV/atom,
LaMg$_{2}$Cu$_{9}$,0.023800000000000487,eV/atom,
K$_{2}$WC$_{2}$O$_{9}$,2.7887000000000004,eV/atom,
Ta$_{6}$Si$_{7}$Ni$_{16}$,0,eV/atom,
Mn$_{2}$B,0.0,eV/atom,
TaFeAs,0.0,eV/atom,
CeAlSi$_{2}$,0.0,eV/atom,
Fe(SbS$_{2}$)$_{2}$,0.0,eV/atom,
Y$_{2}$H$_{2}$C,0.0,eV/atom,
Sm$_{4}$FeSe$_{6}$O,0.0,eV/atom,
DyP,0.0,eV/atom,
PrGaCo$_{2}$,0.0,eV/atom,
Tb$_{2}$Ge$_{2}$Ru,0.0,eV/atom,
KLi$_{3}$GeO$_{4}$,3.9368,eV/atom,
CeAs$_{2}$Pd$_{3}$,0.0,eV/atom,
Ba$_{2}$Sn,0.0,eV/atom,
YbBr$_{2}$,4.3169,eV/atom,
Y$_{2}$InCl$_{7}$,4.0073,eV/atom,
CuH$_{14}$C$_{3}$NCl$_{3}$O$_{2}$,0.6228,eV/atom,
BaCrO$_{4}$,2.9572,eV/atom,
MgB$_{2}$H$_{6}$O$_{7}$,5.412599999999999,eV/atom,
NdMnSi$_{2}$,0.0,eV/atom,
MnInCu$_{2}$,0.0,eV/atom,
U$_{2}$NiO$_{6}$,0.3891,eV/atom,
Zr$_{6}$CuBi$_{2}$,0.0,eV/atom,
ErGe$_{3}$,0.0,eV/atom,
MnO$_{2}$,0.5194999999999999,eV/atom,
Yb$_{4}$As$_{3}$,0.0,eV/atom,
LaMgRh,0.0,eV/atom,
Ga$_{2}$Ru,0.0838000000000001,eV/atom,
Na$_{3}$AsH$_{24}$SeO$_{15}$,3.2866999999999997,eV/atom,
Ba$_{3}$(CdAs$_{2}$)$_{2}$,0.05679999999999996,eV/atom,
Cs$_{2}$Ti(CuSe$_{2}$)$_{2}$,1.3708999999999998,eV/atom,
KMnAg$_{3}$(CN)$_{6}$,1.544,eV/atom,
Nd$_{2}$SiO$_{5}$,4.7758,eV/atom,
Na$_{7}$Ga$_{13}$,0.0,eV/atom,
Li$_{6}$MoN$_{4}$,2.6113,eV/atom,
Te$_{6}$RhCl$_{3}$,1.2547000000000001,eV/atom,
Ti$_{8}$BiO$_{7}$,0.0,eV/atom,
Cu(PtS$_{2}$)$_{2}$,0.13930000000000042,eV/atom,
ErFeO$_{3}$,1.5703,eV/atom,
Ba(NiP)$_{2}$,0.0,eV/atom,
MnAl$_{2}$O$_{4}$,2.6578,eV/atom,
CaP(HO$_{3}$)$_{2}$,0.1312,eV/atom,
CdI$_{2}$,2.3373,eV/atom,
LiFeAsO$_{4}$,2.0793000000000004,eV/atom,
TiSO$_{5}$,2.1048999999999998,eV/atom,
Eu$_{3}$Sb$_{5}$O$_{12}$,0.0,eV/atom,
Rb$_{2}$Cr$_{2}$O$_{7}$,2.7024,eV/atom,
ThGa$_{2}$,0.0,eV/atom,
Li$_{2}$SnSe$_{3}$,1.2489999999999999,eV/atom,
SmCoO$_{3}$,0.6162999999999998,eV/atom,
CeAu,0.0,eV/atom,
NaCaBeSi$_{2}$O$_{6}$F,5.2919,eV/atom,
Cr$_{2}$FeS$_{4}$,0.0,eV/atom,
Cs$_{2}$KCoF$_{6}$,0.0,eV/atom,
PrSiPd,0.0,eV/atom,
H$_{8}$S$_{5}$N$_{2}$,2.1413,eV/atom,
Na$_{2}$RuO$_{3}$,0.0,eV/atom,
Cr$_{3}$GeC,0.0,eV/atom,
Si$_{4}$Mo$_{2}$P$_{4}$O$_{23}$,2.6818999999999997,eV/atom,
RbBe$_{2}$F$_{5}$,7.0859000000000005,eV/atom,
DyZn,0.0,eV/atom,
Cu(BO$_{2}$)$_{2}$,0.0,eV/atom,
Na$_{10}$U$_{8}$W$_{5}$O$_{44}$,1.7426,eV/atom,
Tb$_{5}$Br$_{8}$,0.0,eV/atom,
TaAs,0.0,eV/atom,
YMoClO$_{4}$,2.781,eV/atom,
SmH$_{2}$ClO$_{2}$,4.7223999999999995,eV/atom,
Zr$_{6}$Ni$_{20}$P$_{13}$,0.0,eV/atom,
Te$_{2}$As$_{2}$Se$_{8}$S(OF$_{6}$)$_{2}$,1.3994,eV/atom,
Cr$_{2}$SiC,0.0,eV/atom,
Tm$_{6}$GaCo$_{2}$,0.0,eV/atom,
Zr$_{4}$AlNi$_{2}$,0.0,eV/atom,
Tm$_{2}$Fe$_{2}$Si$_{2}$C,0.013099999999999667,eV/atom,
Tm$_{2}$SO$_{2}$,3.0985,eV/atom,
SrNiGe,0.0,eV/atom,
Cu$_{2}$HgI$_{4}$,0.5589000000000004,eV/atom,
HfAg,0.0,eV/atom,
DyTh,0.0,eV/atom,
Ce$_{3}$GaBr$_{3}$,0.0,eV/atom,
Ge$_{4}$Ir,0.0,eV/atom,
Nb$_{2}$NiO$_{6}$,2.9339,eV/atom,
NaAg(CN)$_{2}$,2.9395,eV/atom,
TlBiTe$_{2}$,0.4683999999999999,eV/atom,
CoPSe,0.6400999999999994,eV/atom,
CoAs$_{3}$,0.0,eV/atom,
DyNiGe$_{2}$,0.0,eV/atom,
Sr$_{2}$YGaCu$_{2}$O$_{7}$,0.0,eV/atom,
TmCrO$_{4}$,0.21420000000000017,eV/atom,
KSnAsS$_{5}$,1.7082,eV/atom,
AlH$_{18}$C$_{3}$(N$_{3}$F$_{2}$)$_{3}$,5.3705,eV/atom,
LiGdO$_{2}$,3.2803999999999998,eV/atom,
CrTe,0.0,eV/atom,
TlF,2.9859,eV/atom,
Sr$_{8}$Ga$_{7}$,0.019299999999999873,eV/atom,
Ca$_{2}$Cr$_{2}$O$_{5}$,0.7249999999999996,eV/atom,
SrCdO$_{2}$,0.018199999999999994,eV/atom,
BaNaCr$_{2}$F$_{9}$,3.5693,eV/atom,
K$_{3}$V(SO)$_{2}$,2.4361,eV/atom,
Dy,0.0,eV/atom,
Na$_{2}$NiO$_{2}$,2.6239,eV/atom,
Zr$_{2}$H$_{16}$SN$_{3}$(O$_{2}$F$_{3}$)$_{3}$,4.0768,eV/atom,[F-].[F-].[F-].[F-].[F-].[F-].[F-].[F-].[F-].[Zr+4].[Zr+4].O=S(=O)([O-])[O-].O.O.[NH4+].[NH4+].[NH4+]
Ba$_{2}$NO$_{6}$,0.2114,eV/atom,
U$_{2}$Fe$_{12}$P$_{7}$,0.0,eV/atom,
V(HO)$_{2}$,1.4121000000000001,eV/atom,
B$_{5}$H$_{6}$Br,3.0316,eV/atom,
Dy(BO$_{2}$)$_{3}$,5.561,eV/atom,
CeAgSb$_{2}$,0.0,eV/atom,
LaNi$_{3}$Rh$_{2}$,0.0,eV/atom,
HfCo,0.0,eV/atom,
Cu$_{9}$Se$_{4}$(Cl$_{3}$O$_{7}$)$_{2}$,0.0,eV/atom,
Al$_{2}$Si$_{2}$H$_{4}$O$_{9}$,0.4899,eV/atom,
MnAsRu,0.0,eV/atom,
Na(LiSi$_{2}$)$_{3}$,0.12260000000000026,eV/atom,
Mo$_{9}$O$_{25}$,0.0,eV/atom,
HoGe$_{2}$Ir,0.0,eV/atom,
Rb$_{2}$Ti(CuS$_{2}$)$_{2}$,1.6512999999999995,eV/atom,
Np$_{2}$Si$_{4}$Tc$_{3}$,0.0,eV/atom,
V$_{5}$Ge$_{3}$,0.0,eV/atom,
Fe$_{2}$SiO$_{4}$,2.7099,eV/atom,
BaTl$_{2}$,0.0,eV/atom,
Ti$_{3}$O,0.0,eV/atom,
Nb$_{2}$PC,0.0,eV/atom,
Ag(TeMo)$_{6}$,0.0,eV/atom,
CdI$_{2}$,2.3629,eV/atom,
Te$_{2}$WCl$_{6}$,0.0,eV/atom,
K$_{3}$Pu(H$_{3}$O$_{4}$)$_{2}$,0.7253000000000001,eV/atom,
SrCeO$_{3}$,2.2876,eV/atom,
Ba$_{3}$Fe$_{2}$Br$_{2}$O$_{5}$,2.3991,eV/atom,
Nb$_{3}$TeCl$_{7}$,0.7004000000000001,eV/atom,
Hg$_{3}$(SF)$_{2}$,1.8372000000000002,eV/atom,
Na$_{2}$Ti$_{3}$O$_{7}$,2.9886999999999997,eV/atom,
RhF$_{3}$,0.8625999999999999,eV/atom,
K$_{5}$Au(IO)$_{2}$,1.8748000000000002,eV/atom,
Pd(PbBr$_{3}$)$_{2}$,1.1813999999999998,eV/atom,
V$_{4}$O$_{7}$,0.581,eV/atom,
FeSiO$_{4}$,0.0,eV/atom,
CeCoSb$_{3}$,0.0,eV/atom,
LiH$_{6}$BrO$_{7}$,3.123,eV/atom,
In$_{2}$(PS$_{3}$)$_{3}$,1.4261,eV/atom,
Li$_{4}$Sm$_{3}$Ge$_{4}$,0.0,eV/atom,
ThPt$_{2}$,0.0,eV/atom,
Ba$_{3}$NaEu$_{3}$(Si$_{3}$O$_{10}$)$_{2}$,0.0,eV/atom,
Ti$_{2}$O$_{3}$,0.0,eV/atom,
Nd$_{2}$TeO$_{2}$,1.5804,eV/atom,
V$_{2}$NiP$_{2}$(H$_{4}$O$_{7}$)$_{2}$,2.3555,eV/atom,
Rb$_{3}$Na(WO$_{4}$)$_{2}$,4.6154,eV/atom,
VPt$_{8}$,0.0,eV/atom,
Cd$_{2}$Sb$_{2}$O$_{7}$,0.5499999999999998,eV/atom,
Gd$_{2}$Sn$_{2}$O$_{7}$,2.6233999999999997,eV/atom,
LuInCu$_{2}$,0.0,eV/atom,
Ba$_{2}$ErGaTe$_{5}$,0.4095,eV/atom,
Ag$_{4}$GeO$_{4}$,0.0,eV/atom,
Li$_{2}$P$_{2}$PdO$_{7}$,1.2047999999999999,eV/atom,
Eu$_{2}$Cu,0.0,eV/atom,
Hf$_{3}$In$_{4}$,0.0,eV/atom,
UIn$_{3}$,0.0,eV/atom,
BeCu,0.0,eV/atom,
Sr(BIr)$_{2}$,0.0,eV/atom,
SrH$_{6}$C$_{4}$O$_{7}$,2.8852,eV/atom,
TmGeRu,0.0,eV/atom,
B$_{2}$Pd$_{5}$,0.0,eV/atom,
O$_{2}$,0.7999,eV/atom,
Nb$_{5}$GaSn$_{2}$,0.0,eV/atom,
SnO$_{2}$,0.8060999999999998,eV/atom,
TiC,0.0,eV/atom,
PrNO$_{5}$,0.04580000000000001,eV/atom,
Al(NCl)$_{3}$,0.0,eV/atom,
Hf$_{2}$P,0.0,eV/atom,
InCuO$_{2}$,0.23989999999999956,eV/atom,
GePbO$_{3}$,2.6724,eV/atom,
LiGa(SiO$_{3}$)$_{2}$,4.2722,eV/atom,
RbNb$_{3}$VCl$_{11}$,0.0,eV/atom,
W$_{2}$CCl$_{8}$,1.2971,eV/atom,
Ga$_{2}$NiP$_{3}$H$_{8}$NO$_{14}$,4.1317,eV/atom,
H$_{5}$NF$_{2}$,6.8966,eV/atom,F.[NH4+]
Rb$_{4}$CO$_{4}$,0.0,eV/atom,
TbTl,0.0,eV/atom,
FeSO$_{4}$F,2.0604,eV/atom,
BaNd(CoO$_{3}$)$_{2}$,0.0,eV/atom,
RbVI$_{3}$,0.6246,eV/atom,
Er$_{2}$Co$_{12}$P$_{7}$,0.0,eV/atom,
ZrGeRu,0.0,eV/atom,
K$_{2}$SbPO$_{6}$,2.5161000000000002,eV/atom,
NdTl(PO$_{3}$)$_{4}$,5.2239,eV/atom,
CeIn$_{5}$Co,0.0,eV/atom,
Ca$_{2}$Mn$_{3}$O$_{8}$,1.4426999999999999,eV/atom,
Na$_{2}$YMoPO$_{8}$,4.1934000000000005,eV/atom,
CdI$_{2}$,2.3613999999999997,eV/atom,
UCrC$_{2}$,0.0,eV/atom,
Li$_{2}$SbPd,0.0,eV/atom,
Rb$_{2}$Y(NO$_{3}$)$_{5}$,3.3341,eV/atom,
Tl$_{3}$SbSe$_{3}$,1.0148000000000001,eV/atom,
CeCoGe$_{2}$,0.0,eV/atom,
BaTiO$_{3}$,2.2929999999999997,eV/atom,
CeCd$_{2}$,0.0,eV/atom,
Sc$_{3}$(Ga$_{3}$Fe)$_{2}$,0.0,eV/atom,
RbCuF$_{3}$,0.0,eV/atom,
U$_{2}$AlCo$_{2}$,0.0,eV/atom,
Sr$_{5}$(B$_{5}$Rh$_{7}$)$_{2}$,0.0,eV/atom,
Al$_{2}$CdO$_{4}$,2.676,eV/atom,
Pu$_{2}$SnPd$_{2}$,0.0,eV/atom,
Nb$_{2}$Hg$_{2}$O$_{7}$,0.4385000000000001,eV/atom,
CuH$_{4}$C$_{2}$S$_{2}$N$_{2}$Cl,0.9968000000000001,eV/atom,[Cl-].[Cu+].S=C(O)C(=S)N
MnBr$_{2}$,1.5292000000000001,eV/atom,
HgC$_{2}$(NO)$_{2}$,3.734,eV/atom,
SbC(N$_{3}$Cl$_{2}$)$_{3}$,1.8341,eV/atom,[N-]=[N+]=N[C+](N=[N+]=[N-])N=[N+]=[N-].Cl[Sb-](Cl)(Cl)(Cl)(Cl)Cl
Yb(FeGe)$_{2}$,0.010200000000000209,eV/atom,
CsH(CO$_{2}$)$_{2}$,2.7051,eV/atom,
CsAsH$_{6}$(CSe)$_{2}$,2.2014,eV/atom,
BaH$_{5}$ClO$_{3}$,4.9758000000000004,eV/atom,
Ca$_{2}$SnS$_{4}$,2.2605,eV/atom,
H$_{2}$S,0.0,eV/atom,S
Si$_{3}$N$_{4}$,2.359300000000001,eV/atom,
Cs$_{2}$NaMn(CN)$_{6}$,0.03109999999999999,eV/atom,
Na$_{2}$B$_{4}$O$_{7}$,5.1481,eV/atom,
Ir(NCl$_{3}$)$_{2}$,0.0,eV/atom,
In$_{3}$Au$_{10}$,0.0,eV/atom,
CuAs$_{4}$(H$_{5}$O$_{8}$)$_{2}$,0.8247,eV/atom,
BaEuFe$_{2}$O$_{5}$,0.0,eV/atom,
Ho(Ni$_{2}$As)$_{2}$,0.0,eV/atom,
Dy$_{10}$Si$_{17}$,0.0,eV/atom,
Pu$_{2}$Si$_{4}$Mo$_{3}$,0.0,eV/atom,
DyScO$_{3}$,4.4572,eV/atom,
SrCrO$_{4}$,2.8468,eV/atom,
Nb$_{3}$VSe$_{6}$,0.0,eV/atom,
K$_{2}$HI$_{2}$ClO$_{6}$,3.0513,eV/atom,
Nb$_{3}$CuO$_{8}$,0.7487999999999997,eV/atom,
Ca(Mo$_{3}$S$_{4}$)$_{2}$,0.0,eV/atom,
CaMg$_{2}$H$_{24}$(ClO$_{2}$)$_{6}$,4.9826,eV/atom,[Mg+2].[Mg+2].[Cl-].[Cl-].[Cl-].[Cl-].[Cl-].[Cl-].[Ca+2].O.O.O.O.O.O.O.O.O.O.O.O
Y$_{3}$Fe$_{5}$O$_{12}$,0.0,eV/atom,
RbW$_{3}$Br$_{7}$,2.6942,eV/atom,
TlAs,0.0,eV/atom,
Ti$_{4}$Bi$_{2}$O$_{11}$,2.0919999999999996,eV/atom,
NaH$_{3}$C$_{4}$S$_{4}$(OF)$_{12}$,6.2957,eV/atom,
LiVP$_{2}$O$_{7}$,2.1256,eV/atom,
Cd$_{2}$P$_{3}$Cl,1.1977000000000002,eV/atom,
RbZnH$_{2}$Se$_{2}$ClO$_{6}$,4.3283000000000005,eV/atom,
TiPRu,0.0,eV/atom,
LaIn$_{5}$Rh,0.0,eV/atom,
CdI$_{2}$,2.3484999999999996,eV/atom,
La(P$_{3}$Os)$_{4}$,0.0,eV/atom,
PH$_{9}$C$_{3}$S$_{2}$NClO$_{4}$,4.0576,eV/atom,O=S(=O)(P(NCCl)S(=O)(=O)C)C
AlCuTe$_{2}$,0.0,eV/atom,
LiAlH$_{4}$,4.729,eV/atom,
PrPt$_{2}$,0.0,eV/atom,
Ba(MnSb)$_{2}$,0.0,eV/atom,
In$_{3}$(PO$_{4}$)$_{2}$,3.0692000000000004,eV/atom,
Hf$_{2}$Hg,0.0,eV/atom,
MnMoN$_{2}$,0.0,eV/atom,
HgPt$_{3}$,0.0,eV/atom,
Ti$_{3}$FeS$_{6}$,0,eV/atom,
CsTbZnSe$_{3}$,2.1028000000000002,eV/atom,
Rb$_{3}$NaV$_{4}$H$_{2}$O$_{13}$,2.9785,eV/atom,
PrPt$_{5}$,0.0,eV/atom,
TbS,0.0,eV/atom,
TeO$_{2}$,2.1971,eV/atom,
TiCdO$_{3}$,2.4627000000000003,eV/atom,
Nb$_{6}$Fe$_{7}$,0.0,eV/atom,
NaMo(PO$_{4}$)$_{2}$,2.4920999999999998,eV/atom,
Sc$_{2}$Te,0.0,eV/atom,
Ho$_{2}$SiSO$_{4}$,2.6337,eV/atom,
YNi$_{2}$B$_{2}$C,0.0,eV/atom,
Ba$_{3}$La$_{2}$(BO$_{3}$)$_{4}$,4.0127,eV/atom,
FeCu$_{6}$(SnS$_{4}$)$_{2}$,0.0,eV/atom,
CsGaS$_{2}$,3.0547000000000004,eV/atom,
AsH$_{3}$,0.0,eV/atom,
LaFePO,0.27059999999999995,eV/atom,
Cu$_{2}$Pb(SeO$_{3}$)$_{3}$,0.2694000000000001,eV/atom,
SiO$_{2}$,0.21039999999999992,eV/atom,
He,17.6476,eV/atom,
Er$_{2}$Te$_{5}$O$_{13}$,3.0079999999999996,eV/atom,
CeP$_{2}$,0.0,eV/atom,
Ce$_{5}$Rh$_{4}$,0.0,eV/atom,
SrLaI$_{4}$,0.0,eV/atom,
MgBe$_{13}$,0.0,eV/atom,
K$_{3}$RhCl$_{6}$,1.7025,eV/atom,
Ba$_{7}$(BIr)$_{12}$,0.0,eV/atom,
La(Al$_{2}$Fe)$_{4}$,0.0,eV/atom,
TlBr,1.9877,eV/atom,
KYbP$_{4}$(H$_{4}$O$_{9}$)$_{2}$,0.0,eV/atom,
PtPb$_{4}$,0.0,eV/atom,
Lu$_{2}$Ge$_{2}$O$_{7}$,3.7065,eV/atom,
KSiBiS$_{4}$,2.0549,eV/atom,
Te$_{4}$As$_{2}$S(OF$_{6}$)$_{2}$,1.1831,eV/atom,
Sr$_{3}$BeB$_{6}$O$_{13}$,4.7944,eV/atom,
Nd$_{3}$NbO$_{7}$,2.6460000000000004,eV/atom,
PbAu$_{2}$,0.0,eV/atom,
Ag$_{2}$S,0.36839999999999984,eV/atom,
Ti$_{3}$NiS$_{6}$,0.0,eV/atom,
CaCl$_{2}$,5.3949,eV/atom,
PrGaNi,0.0,eV/atom,
KNO$_{3}$,2.9587000000000003,eV/atom,
Pu$_{2}$C$_{3}$,0.0,eV/atom,
CaSO$_{4}$,5.9393,eV/atom,
BaYbSn$_{3}$,0.0,eV/atom,
Ag$_{7}$PSe$_{6}$,0.4411999999999998,eV/atom,
SmClF,0.0,eV/atom,
LiFePO$_{4}$,3.5132999999999996,eV/atom,
Ba$_{3}$InHg$_{10}$,0.0,eV/atom,
Pr$_{5}$In$_{11}$Ni$_{6}$,0.0,eV/atom,
SbN(OF$_{3}$)$_{2}$,3.0917,eV/atom,O=[N+]=O.F[Sb-](F)(F)(F)(F)F
Ta$_{7}$Co$_{6}$,0.0,eV/atom,
Lu$_{6}$GaNi$_{2}$,0.0,eV/atom,
Re$_{2}$Si,0.0,eV/atom,
SrFeF$_{5}$,3.7149,eV/atom,
Li$_{2}$MgSiO$_{4}$,4.677099999999999,eV/atom,
K$_{2}$Ca$_{4}$Si$_{8}$O$_{21}$,4.5791,eV/atom,
FeCu$_{2}$SnS$_{4}$,0.0,eV/atom,
Nd(Fe$_{2}$B)$_{6}$,0.0,eV/atom,
PuGa,0.0,eV/atom,
Ba$_{3}$Nb$_{16}$O$_{23}$,0.0,eV/atom,
BaSn$_{2}$S$_{3}$,1.3045,eV/atom,
HfU$_{3}$Sb$_{5}$,0.0,eV/atom,
Pr$_{4}$MgCo,0.0,eV/atom,
K$_{3}$Nd(PO$_{4}$)$_{2}$,4.919499999999999,eV/atom,
InPO$_{4}$,2.3413000000000004,eV/atom,
LuMn$_{5}$,0.0,eV/atom,
SmAl,0.0,eV/atom,
Mn$_{2}$BiPO$_{6}$,2.2474,eV/atom,
Mg$_{2}$Ga$_{5}$Cu$_{6}$,0.0,eV/atom,
SiO$_{2}$,2.8049000000000004,eV/atom,
KAlSiO$_{4}$,4.5002,eV/atom,
NaSe$_{2}$,1.1815000000000002,eV/atom,
Co$_{6}$Ge$_{2}$(CO)$_{19}$,1.3465,eV/atom,
Y(SiIr)$_{2}$,0.0,eV/atom,
K$_{2}$SrV$_{4}$O$_{12}$,3.0368,eV/atom,
Tc$_{3}$P,0.0,eV/atom,
K$_{2}$MgCl$_{4}$,4.7652,eV/atom,
LiMo(PO$_{4}$)$_{2}$,3.0290999999999997,eV/atom,
DyNi,0.0,eV/atom,
NpRu$_{2}$,0.0,eV/atom,
Ca$_{2}$SiB$_{5}$O$_{14}$,0.24060000000000004,eV/atom,
Li$_{17}$Sn$_{4}$,0.0,eV/atom,
CdSiO$_{3}$,2.573,eV/atom,
CeTe$_{2}$,0.0,eV/atom,
Li$_{2}$FeSiO$_{4}$,3.1235999999999997,eV/atom,
Ba$_{2}$SmSbO$_{6}$,3.6053999999999995,eV/atom,
H$_{5}$NO$_{5}$,3.6226000000000003,eV/atom,O=[N+]([O-])O.O.O
Li$_{2}$Ni$_{3}$(P$_{2}$O$_{7}$)$_{2}$,4.0405,eV/atom,
Pb$_{2}$CBr$_{2}$O$_{3}$,2.7849000000000004,eV/atom,
BaGe$_{3}$Rh,0.0,eV/atom,
K$_{2}$Na$_{2}$Gd$_{4}$Nb$_{2}$O$_{13}$,3.1704999999999997,eV/atom,
PbS,1.7193999999999998,eV/atom,
Ta$_{2}$Tl$_{4}$S$_{11}$,1.5232999999999994,eV/atom,
NdInPt,0.0,eV/atom,
La$_{2}$(WO$_{4}$)$_{3}$,4.048100000000001,eV/atom,
Ca$_{5}$(PPd)$_{6}$,0.0,eV/atom,
Ba$_{2}$ZrS$_{4}$,0.6025,eV/atom,
Cu$_{2}$HgI$_{4}$,0.29800000000000004,eV/atom,
SrSn$_{3}$Sb$_{4}$,0.0,eV/atom,
VFeCoSi,0.0,eV/atom,
SbPtSe,0.0,eV/atom,
VH$_{10}$SNO$_{9}$,2.9331,eV/atom,
Sr$_{4}$Al$_{6}$SO$_{12}$,3.3443000000000005,eV/atom,
Ca$_{7}$Tl$_{3}$N$_{2}$,0.0,eV/atom,
Ce(CoB)$_{4}$,0.0,eV/atom,
RbSrP$_{3}$(HO$_{2}$)$_{6}$,5.3296,eV/atom,
Li$_{2}$Yb$_{5}$B$_{3}$O$_{13}$,0.0,eV/atom,
LiS,0.0,eV/atom,
HoBiPt,0.0,eV/atom,
Cd$_{2}$Si(P$_{2}$O$_{7}$)$_{2}$,4.0752,eV/atom,
TiNb$_{3}$O$_{6}$,0.5207999999999999,eV/atom,
K$_{5}$V$_{3}$F$_{14}$,0.0,eV/atom,
Mn$_{3}$Si(O$_{2}$F)$_{2}$,2.7393,eV/atom,
Nd$_{3}$RuO$_{7}$,0.0,eV/atom,
YbCdGe,0.0,eV/atom,
DySeClO$_{3}$,4.366899999999999,eV/atom,
Sn$_{3}$H$_{4}$(NO$_{5}$)$_{2}$,2.657,eV/atom,
U$_{2}$Cu$_{4}$As$_{5}$,0.0,eV/atom,
Sr$_{2}$Cu$_{3}$(BrO$_{2}$)$_{2}$,0.0,eV/atom,
S,2.0442,eV/atom,
Sm$_{2}$SO$_{2}$,2.8996000000000004,eV/atom,
SiO$_{2}$,5.6398,eV/atom,
K$_{5}$Yb(MoO$_{4}$)$_{4}$,0.0,eV/atom,
Na$_{2}$Zn$_{2}$O$_{3}$,1.0572,eV/atom,
DyNi$_{4}$Au,0.0,eV/atom,
Yb$_{2}$MgSi$_{2}$,0.0,eV/atom,
FeCuAs$_{2}$PbO$_{10}$,0.01750000000000007,eV/atom,
BF$_{3}$,8.132,eV/atom,
ZnS,2.0215,eV/atom,
Eu$_{3}$BeO$_{5}$,0.0,eV/atom,
DySiRu,0.0,eV/atom,
Pr$_{4}$Bi$_{3}$,0.0,eV/atom,
U$_{2}$C$_{3}$,0.0,eV/atom,
Ba$_{2}$YAg$_{5}$S$_{6}$,1.3630000000000004,eV/atom,
Nb(BMo)$_{2}$,0.0,eV/atom,
HoCu,0.0,eV/atom,
K$_{5}$H(CN$_{2}$)$_{2}$,3.8504,eV/atom,
YAsO$_{4}$,3.6597999999999997,eV/atom,
KTiBr$_{3}$,0.0,eV/atom,
BaCrF$_{6}$,0.0,eV/atom,
Zn$_{4}$B$_{6}$O$_{13}$,3.4078000000000004,eV/atom,
H$_{2}$CS$_{3}$,2.0181,eV/atom,
GePb$_{5}$O$_{7}$,2.1679999999999997,eV/atom,
Ba$_{2}$Sb$_{3}$,0.2850999999999999,eV/atom,
BaZnSn,0.04300000000000015,eV/atom,
Cu(Mo$_{3}$Se$_{4}$)$_{2}$,0.0,eV/atom,
CsRb$_{2}$SiF$_{7}$,5.726,eV/atom,
Zr(PS$_{3}$)$_{2}$,1.5319000000000003,eV/atom,
Ba$_{3}$CaRu$_{2}$O$_{9}$,0.0,eV/atom,
Yb$_{3}$Pt$_{4}$,0.0,eV/atom,
ZrPd$_{2}$,0.0,eV/atom,
TbCu$_{2}$,0.0,eV/atom,
LiNdTiO$_{4}$,2.2825,eV/atom,
TmH$_{2}$,0.0,eV/atom,
CaC$_{2}$,0.0,eV/atom,
BaCrS$_{2}$,0.0,eV/atom,
Cd$_{4}$OF$_{6}$,1.899,eV/atom,
AlCl$_{3}$,5.263,eV/atom,
IN$_{5}$,0.0343,eV/atom,[I-].N.N.N.N.[NH4+]
K$_{3}$ReC$_{4}$(N$_{2}$O)$_{2}$,2.3828,eV/atom,
Ba$_{2}$GdNbO$_{6}$,2.71,eV/atom,
C$_{2}$N$_{3}$,0.0,eV/atom,
Zr$_{2}$Sb,0.0,eV/atom,
RbReCl$_{4}$,1.0283,eV/atom,
Zr$_{9}$Pt$_{11}$,0.0,eV/atom,
YbZnPb,0.0,eV/atom,
Yb$_{6}$Cl$_{13}$,0.0,eV/atom,
NdCoGe$_{3}$,0.0,eV/atom,
BaPr$_{2}$CoS$_{5}$,0.0,eV/atom,
H$_{6}$PbCBr$_{3}$N,2.1736,eV/atom,
IClOF,2.0229,eV/atom,
GaH$_{20}$C$_{2}$S$_{2}$NO$_{14}$,4.9488,eV/atom,
Cs$_{3}$Y$_{2}$Br$_{9}$,4.0443999999999996,eV/atom,
Ba$_{2}$Nb$_{6}$Te$_{2}$O$_{21}$,2.1563,eV/atom,
Ce(PPt$_{2}$)$_{2}$,0.0,eV/atom,
PrGeRh,0.0,eV/atom,
CeSmI$_{4}$,0.0,eV/atom,
Ba$_{8}$Zr$_{3}$(SbO$_{6}$)$_{4}$,2.9436,eV/atom,
C$_{3}$N$_{4}$,3.7750000000000004,eV/atom,
Nb$_{6}$SI$_{9}$,0.0,eV/atom,
Ge$_{2}$W,0.0,eV/atom,
Nd$_{13}$Cd$_{58}$,0.0,eV/atom,
Mn$_{2}$V$_{2}$O$_{7}$,1.204,eV/atom,
SiC,2.0229999999999997,eV/atom,
K$_{2}$CuF$_{4}$,0.378,eV/atom,
NaAlPO$_{4}$F,5.429500000000001,eV/atom,
Pu$_{3}$Zn$_{22}$,0.0,eV/atom,
Zr$_{2}$Cu,0.0,eV/atom,
Tb(NiGe)$_{2}$,0.0,eV/atom,
Hf$_{5}$Sb$_{9}$,0.0,eV/atom,
NdInPt$_{4}$,0.0,eV/atom,
TmGa$_{2}$Pd,0.0,eV/atom,
BaBi$_{4}$(BrO$_{3}$)$_{2}$,0.0,eV/atom,
NiPRh,0.0,eV/atom,
K$_{2}$Na$_{4}$Be$_{2}$O$_{5}$,2.4329,eV/atom,
Na$_{4}$SnTe$_{4}$,0.9417,eV/atom,
YbPrSe$_{3}$,0.0,eV/atom,
Cs$_{4}$CO$_{4}$,1.2269999999999999,eV/atom,
Eu(CrAs)$_{2}$,0.0,eV/atom,
Ho$_{2}$C(NO)$_{2}$,3.9960999999999993,eV/atom,
U$_{3}$Bi$_{4}$,0.0,eV/atom,
Te$_{6}$Mo(OF$_{5}$)$_{6}$,2.7157999999999998,eV/atom,
KY(WO$_{4}$)$_{2}$,3.2428,eV/atom,
Gd$_{2}$S$_{3}$,0.4572999999999996,eV/atom,
HgWO$_{4}$,2.2798999999999996,eV/atom,
Ni$_{3}$(BO$_{3}$)$_{2}$,3.0436,eV/atom,
Mg$_{14}$Ge$_{5}$O$_{24}$,3.4454999999999996,eV/atom,
CdOF,0.0,eV/atom,
BaSi$_{6}$,0.0,eV/atom,
Ba$_{3}$Fe$_{2}$Cl$_{2}$O$_{5}$,2.4379,eV/atom,
Ce$_{3}$Ni$_{13}$B$_{2}$,0.0,eV/atom,
Ca$_{5}$Pt$_{2}$,0.0,eV/atom,
BaH$_{16}$C$_{4}$S$_{4}$(NO$_{5}$)$_{2}$,5.4192,eV/atom,[Ba+2].O=S(=O)([N-]S(=O)(=O)C)C.O=S(=O)([N-]S(=O)(=O)C)C.O.O
NdTe$_{2}$ClO$_{5}$,0.24799999999999933,eV/atom,
CrAgTe$_{2}$,0.0,eV/atom,
PuIO,0.0,eV/atom,
AgI,0.7690000000000001,eV/atom,
Ti$_{4}$(PO$_{5}$)$_{3}$,0.0,eV/atom,
YCu(MoO$_{4}$)$_{2}$,1.9545000000000001,eV/atom,
AlInCl$_{4}$,4.1864,eV/atom,
La(CuSn)$_{2}$,0.0,eV/atom,
SrNb$_{2}$O$_{6}$,2.9952,eV/atom,
LuGaPt,0.0,eV/atom,
LiHg$_{3}$,0.0,eV/atom,
Y(CrFe$_{2}$)$_{4}$,0.0,eV/atom,
Ba(YS$_{2}$)$_{2}$,1.7564000000000006,eV/atom,
Na$_{2}$U$_{2}$Si(O$_{4}$F)$_{2}$,2.0782999999999996,eV/atom,
Ba$_{3}$SmRu$_{2}$O$_{9}$,0.0,eV/atom,
InBi$_{2}$S$_{4}$Cl,1.5605000000000002,eV/atom,
SrAlSiH,0.6337000000000002,eV/atom,
MnSO$_{3}$,3.8275999999999994,eV/atom,
Ag(MoSe)$_{3}$,0.18469999999999942,eV/atom,
KPSe$_{3}$,1.4100000000000001,eV/atom,
NdScS$_{3}$,1.8577,eV/atom,
K$_{2}$Be$_{2}$(Si$_{2}$O$_{5}$)$_{3}$,4.83,eV/atom,
CrPPd,0.0,eV/atom,
UCl$_{4}$,0.0,eV/atom,
CrHgO$_{4}$,1.9257,eV/atom,
Al$_{2}$ZnO$_{4}$,3.8457000000000003,eV/atom,
Ho(MnAl$_{2}$)$_{4}$,0.0,eV/atom,
SiO$_{2}$,5.7862,eV/atom,
CaGeN$_{2}$,2.6618000000000004,eV/atom,
Ba$_{3}$SrNb$_{2}$O$_{9}$,2.7575000000000003,eV/atom,
GaAs,0.18869999999999987,eV/atom,
NaPr(SeO$_{4}$)$_{2}$,3.3477,eV/atom,
Al$_{3}$Pb$_{5}$F$_{19}$,5.0114,eV/atom,
KLi$_{6}$IrO$_{6}$,0.0,eV/atom,
YSeO$_{3}$F,3.9786,eV/atom,
MnAsH$_{2}$O$_{5}$,1.4118,eV/atom,
SmSbTe,0.0,eV/atom,
Tb$_{5}$Ge$_{3}$,0,eV/atom,
BaMnGaF$_{7}$,3.624,eV/atom,
Lu$_{7}$(NiTe)$_{2}$,0.0,eV/atom,
LaNiSn,0.0,eV/atom,
Ce$_{10}$Se$_{19}$,0.0,eV/atom,
SrCaGe,0.4478,eV/atom,
Ce$_{3}$(AgGe)$_{4}$,0.0,eV/atom,
CO,5.8258,eV/atom,
ZrZnNi$_{4}$,0.0,eV/atom,
SnH$_{8}$(NCl$_{3}$)$_{2}$,2.3166,eV/atom,
Sr$_{3}$LiIrO$_{6}$,0.0,eV/atom,
Ba$_{2}$GdNbO$_{6}$,2.6514,eV/atom,
ReHg$_{2}$O$_{5}$,1.4154,eV/atom,
LaSn$_{2}$Rh,0.0,eV/atom,
SnH$_{6}$Cl$_{4}$O$_{3}$,3.2230999999999996,eV/atom,Cl[Sn](Cl)(Cl)Cl.O.O.O
CoSbS,0.3662000000000001,eV/atom,
MgF$_{2}$,6.824,eV/atom,
VFe,0.0,eV/atom,
HfCr$_{2}$,0.0,eV/atom,
SiCl$_{2}$O,5.5534,eV/atom,
Na$_{5}$InO$_{4}$,1.7202000000000002,eV/atom,
CeZnIn,0.0,eV/atom,
KYS$_{2}$,2.3337000000000003,eV/atom,
Rb$_{2}$PdF$_{6}$,2.2614,eV/atom,
Sr$_{2}$Cu(PO$_{4}$)$_{2}$,0.22160000000000002,eV/atom,