formula,Property band_gap,Property band_gap units,Property SMILES
Cd$_{3}$P$_{2}$,0.0,eV/atom,
NdPb$_{3}$,0.0,eV/atom,
AgP$_{2}$,0.6555,eV/atom,
NpIO,0.0,eV/atom,
BaV$_{2}$CuO$_{7}$,0.7192000000000001,eV/atom,
Rb$_{2}$H$_{4}$Pt,3.2877,eV/atom,
K$_{2}$Li$_{3}$B(P$_{2}$O$_{7}$)$_{2}$,5.5903,eV/atom,
Ca(AlZn)$_{2}$,0.0,eV/atom,
SrMnSn,0.0,eV/atom,
PrCo$_{4}$B,0.0,eV/atom,
NaSbF$_{4}$,4.3132,eV/atom,
TiAs$_{2}$H$_{4}$O$_{9}$,2.9447,eV/atom,
ScInNi$_{2}$,0.0,eV/atom,
FeSn,0.0,eV/atom,
ZrTc$_{2}$,0.0,eV/atom,
NaCr$_{3}$O$_{8}$,1.7910000000000001,eV/atom,
KAl$_{9}$O$_{14}$,4.1426,eV/atom,
Sr$_{2}$UCo,0.0,eV/atom,
Cs$_{3}$LiI$_{4}$,3.8043,eV/atom,
DyPt,0.0,eV/atom,
Ga,0.0,eV/atom,
NaCa$_{3}$UH$_{16}$C$_{3}$SO$_{25}$F,0.48250000000000004,eV/atom,
KFeBP$_{2}$HO$_{9}$,2.9279,eV/atom,
Al$_{2}$SiO$_{5}$,4.835500000000001,eV/atom,
Si(NF$_{3}$)$_{2}$,0.0,eV/atom,
TiAl$_{2}$,0.0,eV/atom,
Li$_{3}$P$_{11}$(H$_{3}$N)$_{17}$,1.9667999999999999,eV/atom,
U$_{3}$(SiNi)$_{4}$,0.0010000000000012221,eV/atom,
Mn(SeO$_{3}$)$_{2}$,1.2896999999999998,eV/atom,
YbSnHg,0.0,eV/atom,
CePO$_{4}$,0.1676000000000002,eV/atom,
Sr$_{5}$Nb$_{5}$O$_{17}$,0.0,eV/atom,
Ti$_{2}$CuS$_{4}$,0.0,eV/atom,
ZrSO$_{7}$,0.0,eV/atom,
Pr$_{6}$Si$_{4}$Ni$_{7}$,0.0,eV/atom,
P$_{2}$Pb$_{2}$O$_{7}$,3.6475,eV/atom,
SnSb$_{2}$H$_{24}$C$_{8}$(SCl)$_{2}$,2.9968,eV/atom,
Ho$_{3}$(CuSi)$_{4}$,0.0,eV/atom,
La(SbO$_{3}$)$_{3}$,1.4863999999999997,eV/atom,
La$_{3}$(SiNi)$_{4}$,0.0,eV/atom,
H$_{4}$CN$_{2}$O,4.7048,eV/atom,N#C[O-].[NH4+]
NaSm(PS$_{3}$)$_{2}$,2.7929999999999997,eV/atom,
Mo$_{6}$PbSe$_{8}$,0.0,eV/atom,
NiP$_{3}$NO$_{9}$,0.0838000000000001,eV/atom,
BaCdPF,1.1477,eV/atom,
GaPt$_{3}$,0.0,eV/atom,
Ba$_{2}$TbIrO$_{6}$,0.0,eV/atom,
BTe$_{3}$(OF$_{5}$)$_{3}$,3.7899,eV/atom,
Sr$_{2}$Zn$_{2}$As$_{3}$,0.23150000000000004,eV/atom,
PuAl$_{2}$Pd$_{5}$,0.0,eV/atom,
B$_{2}$Pb$_{2}$S$_{5}$,1.6623999999999999,eV/atom,
DyNi$_{2}$,0.0,eV/atom,
Cs$_{3}$Mo$_{5}$P$_{6}$O$_{25}$,0.0,eV/atom,
Hf$_{2}$Te,0.0,eV/atom,
Hg(SbS$_{2}$)$_{4}$,1.1245000000000003,eV/atom,
MnCuAs,0.0,eV/atom,
Mn$_{2}$GeS$_{4}$,0.0,eV/atom,
CdI$_{2}$,2.3857,eV/atom,
Ba$_{2}$CaWN$_{4}$,1.8491,eV/atom,
Sr$_{2}$ReNiO$_{6}$,0.004999999999999893,eV/atom,
ScBRh$_{3}$,0.0,eV/atom,
K$_{14}$Fe$_{4}$O$_{13}$,2.2504999999999997,eV/atom,
Sm,0.0,eV/atom,
CdB$_{2}$,0.0,eV/atom,
Nb$_{4}$SiNi,0.0,eV/atom,
Na$_{2}$SnTeO$_{6}$,1.2355999999999998,eV/atom,
GdNi$_{2}$,0.0,eV/atom,
SrTeO$_{4}$,2.2328,eV/atom,
Ba(Cu$_{2}$P)$_{4}$,0.0,eV/atom,
Gd$_{5}$Pb$_{3}$,0.0,eV/atom,
K$_{2}$NaMoF$_{6}$,3.8931,eV/atom,
TaAlCo$_{2}$,0.0,eV/atom,
GeClO$_{2}$F$_{5}$,1.7275,eV/atom,
NdInPd,0.0,eV/atom,
Zr$_{6}$Sb$_{2}$Pt,0.0,eV/atom,
NaS,0.0,eV/atom,
H$_{12}$C$_{3}$NF$_{3}$,7.2752,eV/atom,
NbTl(PO$_{4}$)$_{2}$,2.8409,eV/atom,
TaGe$_{2}$,0.0,eV/atom,
Dy$_{12}$(MnC$_{3}$)$_{5}$,0.0,eV/atom,
Sc$_{5}$Re$_{24}$,0.0,eV/atom,
K$_{2}$Be$_{2}$PbF$_{8}$,5.547,eV/atom,
Np(SiOs)$_{2}$,0.0,eV/atom,
ScFeSi,0.0,eV/atom,
PrCrO$_{3}$,2.2733999999999996,eV/atom,
BeH$_{6}$(NF$_{2}$)$_{2}$,7.2018,eV/atom,
Th$_{3}$As$_{4}$,0.2716000000000003,eV/atom,
GaSe$_{3}$N$_{2}$Cl$_{5}$,1.8393000000000002,eV/atom,
Ba(Mo$_{3}$O$_{5}$)$_{2}$,0.08589999999999964,eV/atom,
Cs$_{3}$Li$_{2}$Ga(MoO$_{4}$)$_{4}$,4.0242,eV/atom,
Cu$_{2}$S,0.34750000000000014,eV/atom,
MoPb$_{3}$Cl$_{2}$O$_{5}$,2.1981999999999995,eV/atom,
Eu$_{3}$Fe$_{5}$O$_{12}$,0.0,eV/atom,
SrPr$_{2}$O$_{4}$,3.3444000000000003,eV/atom,
AlAuO$_{2}$,0.5888,eV/atom,
TiCdO$_{3}$,0.0,eV/atom,
SrCuSb,0.0,eV/atom,
Mg$_{2}$Al$_{2}$Se$_{5}$,1.0990000000000002,eV/atom,
Cs$_{5}$Ag$_{4}$C$_{8}$IN$_{8}$,2.6729,eV/atom,
SnAs,0.0,eV/atom,
Ca,0.0,eV/atom,
Zr$_{3}$N$_{4}$,0.6807999999999996,eV/atom,
USiNi,0.0,eV/atom,
FeN,0.0,eV/atom,
U$_{2}$Si$_{4}$Mo$_{3}$,0.0,eV/atom,
ReNO$_{4}$,0.0,eV/atom,
CrSbPt,0.0,eV/atom,
Yb(ErS$_{2}$)$_{2}$,1.4663999999999997,eV/atom,
Cu$_{2}$H$_{2}$CO$_{5}$,0.0,eV/atom,
NaYH$_{8}$(CO$_{3}$)$_{4}$,3.4281,eV/atom,[Na+].[Y+3].O=C([O-])C(=O)[O-].O=C([O-])C(=O)[O-].O.O.O.O
ThSn$_{3}$,0.0,eV/atom,
LiFe(GeO$_{3}$)$_{2}$,2.7405,eV/atom,
Ta$_{2}$V$_{3}$Si,0.0,eV/atom,
PCl$_{3}$O,4.4528,eV/atom,
AlFe,0.0,eV/atom,
Mg$_{3}$BN$_{3}$,1.3798,eV/atom,
K$_{2}$CuH$_{8}$(CO$_{3}$)$_{4}$,0.7686999999999999,eV/atom,
TbOs$_{2}$,0.0,eV/atom,
Cs$_{6}$ZnGe$_{8}$,1.1262999999999999,eV/atom,
Zn$_{3}$S$_{2}$O$_{9}$,3.3649,eV/atom,
PuFe$_{2}$,0.0,eV/atom,
Mg$_{2}$SnO$_{4}$,1.9033999999999995,eV/atom,
K$_{5}$ThF$_{9}$,5.9624,eV/atom,
Hg$_{3}$SbAsS$_{3}$,1.6609000000000003,eV/atom,
SrAsH$_{3}$O$_{5}$,3.8952999999999998,eV/atom,
YInAu$_{2}$,0.0,eV/atom,
V$_{2}$Cu$_{3}$O$_{8}$,0.0049000000000001265,eV/atom,
YbCuBi,0.0,eV/atom,
Sr(InP)$_{2}$,0.17999999999999972,eV/atom,
Rb$_{3}$As,0.0,eV/atom,
HgRhF$_{6}$,0.0,eV/atom,
Ho$_{2}$S$_{3}$,1.4612999999999996,eV/atom,
Rb$_{8}$AsO$_{3}$,0.0,eV/atom,
Sr$_{2}$RhO$_{4}$,0.0,eV/atom,
K$_{2}$(MoSe$_{6}$)$_{3}$,0.8439000000000001,eV/atom,
TiSiRu,0.0,eV/atom,
Sr$_{2}$Fe$_{2}$O$_{5}$,0.7521,eV/atom,
Ba(FeSe$_{2}$)$_{2}$,0.0,eV/atom,
Yb$_{3}$Si$_{5}$,0.0,eV/atom,
InBi,0.0,eV/atom,
LiRhF$_{6}$,0.0,eV/atom,
CdPt$_{3}$,0.0,eV/atom,
CdCu$_{2}$SnS$_{4}$,0.0,eV/atom,
ErCoGe,0.0,eV/atom,
Al$_{2}$Si$_{2}$O$_{7}$,3.6977,eV/atom,
VAg$_{3}$O$_{4}$,0.6003,eV/atom,
ZnS,2.0244999999999997,eV/atom,
P,1.8454000000000002,eV/atom,[P]
La$_{11}$In$_{9}$Ni$_{4}$,0.0,eV/atom,
LaSnAu,0.0,eV/atom,
Sr$_{5}$Sn$_{3}$,0.0,eV/atom,
Au$_{2}$O$_{3}$,0.8199999999999998,eV/atom,
VBiPbO$_{5}$,2.9403,eV/atom,
Cs$_{4}$KLiGa$_{2}$F$_{12}$,6.0599,eV/atom,
YPt$_{3}$,0.0,eV/atom,
CsZn$_{2}$P$_{2}$HO$_{8}$,3.9656,eV/atom,
IF$_{5}$,4.6815,eV/atom,FI(F)(F)(F)F
Ce$_{3}$InC,0.0,eV/atom,
In$_{2}$Co,0.0,eV/atom,
GdAg(PO$_{3}$)$_{4}$,2.3239,eV/atom,
TbPPt,0.0,eV/atom,
ZrGeIr,0.0,eV/atom,
Mn$_{5}$Ge$_{3}$,0.0,eV/atom,
VCdAgO$_{4}$,1.8416,eV/atom,
Cs$_{3}$TbF$_{6}$,5.7503,eV/atom,
Li$_{2}$Ni$_{12}$P$_{7}$,0.0,eV/atom,
Ag$_{3}$SBr,0.29499999999999993,eV/atom,
NaEr(SO$_{4}$)$_{2}$,5.7442,eV/atom,
SrS$_{2}$,1.2822,eV/atom,
Ca$_{3}$(GeAs$_{2}$)$_{2}$,0.6160999999999999,eV/atom,
In$_{2}$AsPt$_{8}$,0.0,eV/atom,
Rb$_{2}$CoBr$_{4}$,0.641,eV/atom,
K$_{3}$ReH$_{6}$,0.0,eV/atom,
Ho$_{2}$Co$_{12}$P$_{7}$,0.0,eV/atom,
Ca$_{3}$GeN,0.0,eV/atom,
SrB$_{2}$,0.0,eV/atom,
NbPt,0.0,eV/atom,
BaAlBO$_{3}$F$_{2}$,6.0642000000000005,eV/atom,
U$_{4}$S$_{3}$,0.0,eV/atom,
ThC$_{2}$,0.0,eV/atom,
LuInPt,0.0,eV/atom,
Y$_{5}$Mg$_{24}$,0.0,eV/atom,
Zr$_{2}$CuGe$_{4}$,0.0,eV/atom,
CsTbS$_{2}$,2.1420000000000003,eV/atom,
Ca(MnP)$_{2}$,0.0,eV/atom,
Si$_{2}$W$_{3}$,0.0,eV/atom,
Ba(AgTe)$_{2}$,0.6732999999999998,eV/atom,
Co(BW)$_{3}$,0.0,eV/atom,
Nd(FeP$_{3}$)$_{4}$,0.0,eV/atom,
Rb$_{4}$P$_{2}$PbSe$_{8}$,1.669,eV/atom,
TaTe$_{4}$Ir,0.0,eV/atom,
Ba$_{2}$GdMoO$_{6}$,0.8590999999999998,eV/atom,
LuNiB$_{4}$,0.0,eV/atom,
CsNO$_{3}$,3.2536,eV/atom,
Eu$_{3}$AuO$_{6}$,0.0,eV/atom,
CsK$_{2}$PdF$_{5}$,1.8660999999999999,eV/atom,
RuXeF$_{11}$,0.30500000000000016,eV/atom,
CsBO$_{2}$,3.8457000000000003,eV/atom,
KCu$_{3}$Te$_{2}$,0.4272,eV/atom,
TmZnPd,0.0,eV/atom,
LuSnAu,0.0,eV/atom,
CeSiIr$_{2}$,0.0,eV/atom,
DyNbO$_{4}$,2.3561,eV/atom,
Tb$_{2}$TiO$_{5}$,3.3008999999999995,eV/atom,
Co$_{3}$W,0.0,eV/atom,
Dy(FeGe)$_{2}$,0.0,eV/atom,
Rb$_{2}$HgO$_{2}$,2.0173,eV/atom,
FeBN$_{3}$O$_{3}$F$_{4}$,1.3388,eV/atom,
Cs$_{2}$NaSmCl$_{6}$,5.0722000000000005,eV/atom,
P$_{2}$Pb$_{3}$O$_{8}$,3.3803,eV/atom,
SINOF$_{2}$,2.1589,eV/atom,
Ba(AlTe$_{2}$)$_{2}$,1.5453999999999999,eV/atom,
SrSbPt,0.0,eV/atom,
Li$_{4}$H$_{6}$Os,2.691,eV/atom,
TbPb$_{3}$,0.0,eV/atom,
Te,0.1856,eV/atom,
CrO$_{2}$,0.0,eV/atom,
Ca$_{2}$H$_{2}$S$_{2}$O$_{7}$,5.0825,eV/atom,
Ho$_{4}$Ga$_{12}$Fe,0.0,eV/atom,
PrP$_{5}$,0.0,eV/atom,
Mg$_{2}$Pd,0.0,eV/atom,
CsTmZnTe$_{3}$,1.3778000000000001,eV/atom,
K$_{2}$NaCrF$_{6}$,3.9821,eV/atom,
Sm$_{2}$Mo$_{2}$C$_{3}$,0.0,eV/atom,
ErCo$_{3}$,0.0,eV/atom,
Ta$_{4}$N$_{5}$,0.0,eV/atom,
Ba$_{2}$Si,5.00000000000167E-4,eV/atom,
ErAl$_{3}$Ni$_{2}$,0.0,eV/atom,
AuCl,1.8679000000000001,eV/atom,
Tl$_{3}$AgTe$_{2}$,0.5357000000000003,eV/atom,
Y$_{2}$BeO$_{4}$,4.1009,eV/atom,
Si$_{2}$Hg$_{6}$O$_{7}$,1.4980000000000002,eV/atom,
CoO$_{2}$,0.0,eV/atom,
ThHg$_{2}$,0.0,eV/atom,
Er$_{5}$BiPt$_{2}$,0.0,eV/atom,
NdCo$_{3}$,0.0,eV/atom,
AsC$_{2}$S$_{2}$(OF$_{3}$)$_{3}$,3.5403000000000002,eV/atom,
YbHg$_{6}$As$_{4}$Br$_{7}$,0.0,eV/atom,
TbNi$_{4}$B,0.0,eV/atom,
Sn$_{5}$W$_{8}$O$_{23}$,1.7194999999999996,eV/atom,
PtPb,0.0,eV/atom,
ThS,0.0,eV/atom,
BiBr,1.0369000000000002,eV/atom,
Na$_{6}$Si$_{2}$Se$_{7}$,2.1551,eV/atom,
CeP$_{2}$(HO$_{4}$)$_{2}$,0.5111000000000001,eV/atom,
Ba$_{3}$PrRu$_{2}$O$_{9}$,0.0,eV/atom,
Na$_{4}$Fe$_{2}$O$_{5}$,1.9196000000000002,eV/atom,
H$_{6}$S(NO$_{2}$)$_{2}$,5.4258,eV/atom,
NaZnAsO$_{4}$,2.7708,eV/atom,
HfVGe,0.0,eV/atom,
Cd(GaSe$_{2}$)$_{2}$,1.3457000000000001,eV/atom,
LiYS$_{2}$,1.9195999999999995,eV/atom,
Dy$_{2}$CdS$_{4}$,1.0877,eV/atom,
KICl$_{2}$O,0.9023,eV/atom,
Ba$_{5}$(RuO$_{5}$)$_{2}$,0.22809999999999997,eV/atom,
LaBMoO$_{6}$,3.5502,eV/atom,
Be$_{5}$Co,0.0,eV/atom,
Y(CrGe)$_{6}$,0.0,eV/atom,
Ho$_{2}$AlSi$_{2}$,0.0,eV/atom,
ErSiRh,0.03829999999999956,eV/atom,
Er$_{15}$C$_{19}$,0.0,eV/atom,
BaAlGe,0.0,eV/atom,
BaMo$_{2}$(P$_{2}$O$_{7}$)$_{2}$,3.9912000000000005,eV/atom,
Cs$_{2}$AgSbS$_{4}$,1.4883000000000002,eV/atom,
CaIrO$_{3}$,0.0,eV/atom,
Ti$_{2}$Sn$_{3}$,0.0,eV/atom,
CsCeCuS$_{3}$,0.7010999999999998,eV/atom,
LiAlCl$_{4}$,5.5616,eV/atom,
Ca$_{16}$(SiN$_{2}$)$_{17}$,0.0,eV/atom,
La$_{3}$NbO$_{7}$,2.8479,eV/atom,
TaSi$_{2}$PH$_{18}$C$_{6}$(NCl$_{3}$)$_{2}$,3.1119,eV/atom,
Na$_{2}$Te$_{4}$MoO$_{12}$,2.678,eV/atom,
Na$_{3}$Al$_{2}$(PO$_{4}$)$_{3}$,5.2294,eV/atom,
SrCu$_{2}$(PO$_{4}$)$_{2}$,0.0010999999999996568,eV/atom,
TbCu(BO$_{2}$)$_{5}$,0.7693000000000003,eV/atom,
Fe(NiS$_{2}$)$_{2}$,0.0,eV/atom,
Sb$_{2}$Cl$_{5}$F$_{4}$,2.3152,eV/atom,
Pr$_{3}$Zn$_{11}$,0.0,eV/atom,
Y$_{5}$Ir$_{2}$,0.0,eV/atom,
Pb$_{13}$(Cl$_{3}$O$_{5}$)$_{2}$,1.8938000000000001,eV/atom,
FeS,0.0,eV/atom,
K$_{4}$Be$_{3}$O$_{5}$,3.2092,eV/atom,
MnO$_{2}$,0.0,eV/atom,
ScAlGe,0.0,eV/atom,
Na$_{2}$PH$_{11}$O$_{8}$,5.2623,eV/atom,
CsCeS$_{2}$,0.042899999999999494,eV/atom,
EuBO$_{3}$,0.0021999999999999797,eV/atom,
ScCoSi,0.0,eV/atom,
NbCrN$_{3}$,0.0,eV/atom,
PuSi$_{2}$,0.0,eV/atom,
RbSbF$_{6}$,4.8849,eV/atom,
GdClO$_{2}$,0.020299999999999985,eV/atom,
AlAs,1.6831,eV/atom,
MoPbO$_{4}$,2.8970000000000002,eV/atom,
BaErMn$_{2}$O$_{5}$,0.0,eV/atom,
Ba(BSe$_{3}$)$_{2}$,1.6958000000000002,eV/atom,
Tl$_{2}$MoO$_{4}$,3.4611,eV/atom,
Tb$_{6}$Al$_{3}$Si,0.0,eV/atom,
Sn$_{3}$BF$_{9}$,4.3624,eV/atom,
BaC$_{2}$,1.6040999999999999,eV/atom,
Bi$_{2}$PdO$_{4}$,0.0,eV/atom,
Fe$_{2}$W$_{2}$C,0.010800000000000587,eV/atom,
Y$_{2}$Si$_{4}$CN$_{6}$,3.1011000000000006,eV/atom,
Al$_{2}$Au,0.0,eV/atom,
UCoAs$_{2}$,0.0,eV/atom,
W$_{3}$N$_{4}$,0.0,eV/atom,
CoN,0.0,eV/atom,
CeCdPt,0.0,eV/atom,
Al$_{12}$W,0.0,eV/atom,
CaPd$_{3}$C,0.0,eV/atom,
Ca(IO$_{2}$)$_{2}$,1.6015000000000001,eV/atom,[Ca+2].[I-].[I-].O.O.O.O
CaMgPb,0.0,eV/atom,
SmGaCo,0.0,eV/atom,
SeCl,2.1687000000000003,eV/atom,
GaCuI$_{4}$,1.6966999999999999,eV/atom,
O$_{2}$,1.3227,eV/atom,[O]
KC(NO$_{2}$)$_{3}$,2.1635,eV/atom,
EuSbO$_{4}$,0.0,eV/atom,
Ba$_{3}$GaP$_{3}$,0.601,eV/atom,
Na$_{2}$CaSiO$_{4}$,3.3360999999999996,eV/atom,
Fe$_{2}$P$_{4}$PbO$_{14}$,2.5682,eV/atom,
SrBrF,5.0003,eV/atom,
Th(TeO$_{3}$)$_{2}$,3.6292,eV/atom,
Fe(PO$_{3}$)$_{3}$,2.7933999999999997,eV/atom,
Sr$_{3}$La$_{2}$(BO$_{3}$)$_{4}$,4.1562,eV/atom,
CsLi(B$_{3}$O$_{5}$)$_{2}$,5.0778,eV/atom,
MoPO$_{5}$,2.4078,eV/atom,
ReC$_{5}$IO$_{5}$,2.1994000000000002,eV/atom,O=C=[Re](I)(=C=O)(=C=O)(=C=O)=C=O
ZnHgC$_{4}$(SN)$_{4}$,2.4901999999999997,eV/atom,
MnP$_{4}$,0.5187999999999988,eV/atom,
CoH$_{20}$S$_{2}$N$_{6}$ClO$_{4}$,2.5831,eV/atom,
TiSiNi,0.0,eV/atom,
Li$_{7}$(Eu$_{2}$Bi$_{3}$)$_{2}$,0.0,eV/atom,
Ca$_{2}$FeMoO$_{6}$,1.1193000000000004,eV/atom,
Sc$_{3}$InN,0.0,eV/atom,
HoSeO$_{3}$F,4.2961,eV/atom,
SrCuSeF,1.1989,eV/atom,
CsTmP$_{4}$(H$_{2}$O$_{3}$)$_{6}$,5.4054,eV/atom,
Cu$_{2}$Se,0.08890000000000065,eV/atom,
Bi$_{3}$Se$_{4}$Br,1.0642,eV/atom,
LuCdNi$_{4}$,0.0,eV/atom,
Tb(Ni$_{2}$As)$_{2}$,0.0,eV/atom,
Ba,0.0,eV/atom,
Pr$_{3}$Si$_{6}$N$_{11}$,2.9903999999999993,eV/atom,
Al(HO)$_{3}$,4.9959999999999996,eV/atom,
H$_{13}$S$_{2}$N$_{3}$O$_{8}$,5.1189,eV/atom,
Zr$_{3}$Zn$_{3}$C,0.0,eV/atom,
La$_{3}$Al,0.0,eV/atom,
Ba(PPd)$_{2}$,0.0,eV/atom,
DyGa$_{2}$Pd,0.0,eV/atom,
Ta$_{4}$GaSe$_{8}$,0.0,eV/atom,
Te$_{5}$(O$_{2}$F$_{11}$)$_{2}$,2.867,eV/atom,
Li$_{3}$AlSiO$_{5}$,4.7208000000000006,eV/atom,
BeNi,0.0,eV/atom,
AlPS$_{4}$,2.8213,eV/atom,
AgB$_{10}$H$_{26}$C$_{6}$N,3.8864,eV/atom,
TbSnGe,0.0,eV/atom,
CdSbAu,0,eV/atom,
FeS$_{2}$,0.4562000000000008,eV/atom,
Sc$_{2}$MnC,0.0,eV/atom,
CuAg$_{3}$S$_{2}$,0.2464000000000004,eV/atom,
KLa(PS$_{3}$)$_{2}$,2.6742000000000004,eV/atom,
CuBiTeO,0.0,eV/atom,
K$_{2}$Zn$_{2}$Si$_{8}$O$_{19}$,4.2179,eV/atom,
LuTl$_{3}$,0.09039999999999981,eV/atom,
K$_{4}$Fe$_{2}$O$_{5}$,2.217,eV/atom,
Y$_{2}$InNi$_{2}$,0.0,eV/atom,
Bi$_{12}$Rh$_{3}$Br$_{2}$,0.0,eV/atom,
SrGe(PO$_{4}$)$_{2}$,4.0919,eV/atom,
Ba$_{2}$PrNbO$_{6}$,3.0923,eV/atom,
CsXe$_{3}$O$_{3}$F$_{13}$,2.8118999999999996,eV/atom,
PrPS$_{4}$,2.2769999999999997,eV/atom,
PdC,0.0,eV/atom,
ErHO$_{2}$,3.9820999999999995,eV/atom,
Tb$_{3}$AlC,0.0,eV/atom,
GdGa$_{3}$Ru,0.0,eV/atom,
AuSCl$_{5}$,1.7517999999999998,eV/atom,
Sm(BRu)$_{2}$,0.0,eV/atom,
NiAs$_{3}$H$_{3}$OF$_{18}$,4.24,eV/atom,
CaPH$_{3}$O$_{4}$,6.067200000000001,eV/atom,
BeAlH$_{5}$,3.601,eV/atom,
HoMg,0.0,eV/atom,
K$_{2}$NaH$_{5}$(CO$_{4}$)$_{2}$,4.3382000000000005,eV/atom,
Sr$_{8}$Fe$_{8}$O$_{23}$,0.0,eV/atom,
Ag$_{2}$Mo$_{3}$SeO$_{12}$,1.676,eV/atom,
TiPd$_{2}$,0.0,eV/atom,
TiS$_{2}$,0.05109999999999998,eV/atom,
YbGa$_{2}$Ge$_{3}$,0.0,eV/atom,
SbI$_{3}$,2.1446000000000005,eV/atom,
Y(GeRh)$_{2}$,0,eV/atom,
NiSn$_{2}$H$_{12}$(OF)$_{6}$,4.5576,eV/atom,
CeP,0.0,eV/atom,
Rb$_{4}$CO$_{4}$,0.48960000000000004,eV/atom,
LiHF$_{2}$,8.0448,eV/atom,
TlAgTe$_{2}$,0.0,eV/atom,
Y$_{3}$(CoGe$_{2}$)$_{2}$,0.0,eV/atom,
Ta$_{2}$Hg$_{3}$S(O$_{2}$F$_{5}$)$_{2}$,2.4414,eV/atom,
Pd(Se$_{4}$Cl)$_{2}$,1.3384999999999998,eV/atom,
Cs$_{3}$SbSe$_{4}$,1.5387000000000002,eV/atom,
NaP$_{5}$,1.3890000000000002,eV/atom,
ClF,2.0481000000000003,eV/atom,FCl
Eu$_{2}$Si$_{2}$O$_{7}$,0.015500000000000291,eV/atom,
K$_{3}$Nb$_{2}$Ag$_{3}$S$_{8}$,1.9433999999999998,eV/atom,
Lu$_{2}$FeS$_{4}$,0.0,eV/atom,
YbAu,0.0,eV/atom,
Na$_{2}$PtC$_{2}$,0.3662000000000001,eV/atom,
Yb(MnAs)$_{2}$,0.0,eV/atom,
SrNb$_{2}$Bi$_{2}$O$_{9}$,2.4638,eV/atom,
PWO$_{5}$,1.8469,eV/atom,
LuBPd$_{3}$,0,eV/atom,
YPb$_{3}$,0.0,eV/atom,
Dy$_{2}$Co$_{3}$Ge$_{5}$,0.0,eV/atom,
Dy(HO)$_{3}$,3.6966,eV/atom,
La$_{2}$GeO$_{5}$,4.015499999999999,eV/atom,
TmGa$_{6}$,0.0,eV/atom,
K$_{3}$Ce$_{2}$(NO$_{3}$)$_{9}$,0.0,eV/atom,
ScAl,0.0,eV/atom,
SrFeSn(PO$_{4}$)$_{3}$,2.7579000000000002,eV/atom,
PrCdNi$_{4}$,0.0,eV/atom,
Sr$_{3}$Ru$_{2}$O$_{7}$,0.0,eV/atom,
Nd$_{4}$Bi$_{3}$,0.0,eV/atom,
VSiP$_{2}$O$_{9}$,2.7465,eV/atom,
Tb(Al$_{2}$Fe)$_{4}$,0.0,eV/atom,
Co(N$_{2}$Cl)$_{3}$,0.0,eV/atom,
GaAs,0.0,eV/atom,
ErNiGe$_{2}$,0.0,eV/atom,
La$_{4}$B$_{4}$Cl$_{5}$,0.0,eV/atom,
SrMgP$_{3}$N$_{5}$O$_{2}$,4.1352,eV/atom,
AlHSO$_{5}$,5.744800000000001,eV/atom,
Ca(CuSn)$_{2}$,0.0,eV/atom,
BaMoO$_{4}$,4.0822,eV/atom,
Li$_{6}$PClO$_{5}$,5.2543,eV/atom,
CeSiO$_{4}$,1.4477999999999995,eV/atom,
B$_{5}$PH$_{4}$Cl,4.2176,eV/atom,
K$_{13}$Na$_{2}$W$_{7}$N$_{19}$,1.5499,eV/atom,
DyBiPd,0.0,eV/atom,
SrV$_{4}$O$_{9}$,2.4622,eV/atom,
KLaTe$_{2}$,1.7012999999999994,eV/atom,
LaCuTeO,1.1965999999999992,eV/atom,
Ba$_{5}$Cd$_{2}$(Sb$_{2}$O)$_{2}$,0.0,eV/atom,
CaMnSn,0.0,eV/atom,
H$_{13}$ClO$_{6}$,4.9350000000000005,eV/atom,Cl.O.O.O.O.O.O
Na$_{2}$Zr(MoO$_{4}$)$_{3}$,3.0133,eV/atom,
Ba$_{3}$In(BO$_{3}$)$_{3}$,3.4878,eV/atom,
Mn$_{2}$PH$_{9}$(C$_{4}$O$_{3}$)$_{3}$,2.9104,eV/atom,
Mg$_{7}$TiH$_{16}$,0.0,eV/atom,
Dy$_{5}$Si$_{4}$,0.0,eV/atom,
KMnPO$_{4}$,3.1953,eV/atom,
Ca$_{2}$PClO$_{4}$,5.3708,eV/atom,
SnO$_{2}$,0.6519000000000004,eV/atom,
PtO$_{2}$,0.0,eV/atom,
U$_{2}$Te$_{3}$,0.0,eV/atom,
TlSb,0.0,eV/atom,
CaIn,0.0,eV/atom,
Ba$_{2}$Ge(TeSe)$_{2}$,0.8347000000000002,eV/atom,
PHSF$_{2}$,4.5687,eV/atom,FPF.S
Na$_{5}$Er(MoO$_{4}$)$_{4}$,3.8857,eV/atom,
TiTlPO$_{5}$,2.3146,eV/atom,
Fe$_{3}$PH$_{6}$PbSO$_{14}$,1.3477,eV/atom,
ZrNi,0.0,eV/atom,
Cs$_{4}$Ni$_{3}$F$_{10}$,4.9549,eV/atom,
Ca$_{3}$SnO,0.0,eV/atom,
PbO,2.2295,eV/atom,
ZnTeMoO$_{6}$,3.0888,eV/atom,
ZnPH$_{5}$C$_{2}$N$_{4}$O$_{3}$,4.6202,eV/atom,
Tm$_{3}$InC,0.0,eV/atom,
LaAgPb,0.0,eV/atom,
MgSiO$_{3}$,3.7381,eV/atom,
MnAsO$_{4}$,1.0584,eV/atom,
SmGe,0.0,eV/atom,
Al$_{5}$Co$_{2}$,0.0,eV/atom,
NaZnP$_{3}$(H$_{4}$O$_{5}$)$_{2}$,5.668799999999999,eV/atom,
Gd$_{6}$CoBr$_{10}$,0.01750000000000007,eV/atom,
MnNiP,0.0,eV/atom,
H$_{12}$PtC$_{6}$(N$_{3}$O$_{4}$)$_{2}$,1.7757,eV/atom,
MgAgSb,0.0,eV/atom,
Ag$_{4}$P$_{2}$S$_{7}$,1.6476000000000002,eV/atom,
CsMgH$_{12}$(ClO$_{2}$)$_{3}$,4.9182,eV/atom,
Li(H$_{3}$N)$_{4}$,0.0,eV/atom,
Re(TeBr$_{2}$)$_{2}$,1.9379,eV/atom,
UTe$_{2}$,0.0,eV/atom,
BH$_{3}$NF$_{4}$,7.5583,eV/atom,
Eu$_{3}$(BO$_{3}$)$_{2}$,0.3684000000000003,eV/atom,
K$_{3}$GaS$_{3}$,2.7117999999999998,eV/atom,
TeH$_{9}$SN$_{2}$O$_{5}$F$_{3}$,4.2669999999999995,eV/atom,[OH-].O=S(=O)([O-])[O-].F[Te+](F)F.[NH4+].[NH4+]
Dy$_{5}$Ga$_{3}$,0.0,eV/atom,
Cu$_{3}$Ge,0.0,eV/atom,
SrIn$_{4}$Ni,0.0,eV/atom,
GdCu(WO$_{4}$)$_{2}$,1.0480000000000005,eV/atom,
Tl$_{4}$SiSe$_{4}$,1.4648000000000003,eV/atom,
CsSmGeS$_{4}$,2.4631,eV/atom,
MnTl$_{2}$SnTe$_{4}$,0.3083,eV/atom,
K$_{2}$ZrGe$_{2}$O$_{7}$,3.9038000000000004,eV/atom,
NaNbO$_{3}$,2.3619,eV/atom,
Ce$_{5}$(SiN$_{3}$)$_{3}$,0.0,eV/atom,
FeP$_{3}$H$_{18}$C$_{6}$(SO)$_{6}$,1.8523,eV/atom,
Lu(Mo$_{3}$Se$_{4}$)$_{2}$,0.0,eV/atom,
Hf$_{4}$CuSi$_{4}$,0.0,eV/atom,
K$_{4}$NO,0.0,eV/atom,
MnH$_{12}$C$_{2}$NCl$_{3}$O$_{2}$,3.9672,eV/atom,
FeB$_{4}$,0.0,eV/atom,
K(Mo$_{2}$O$_{3}$)$_{2}$,0.03880000000000017,eV/atom,
KIn(MoO$_{4}$)$_{2}$,3.6425,eV/atom,
RbC,3.5275,eV/atom,
Na$_{2}$B$_{5}$H$_{5}$O$_{11}$,4.9627,eV/atom,
CoH$_{14}$N$_{5}$O$_{9}$,0.7757999999999999,eV/atom,
EuSi$_{2}$Ni,0.0,eV/atom,
Fe$_{2}$SiS$_{4}$,0.0,eV/atom,
P$_{2}$PbAu$_{2}$,0.0,eV/atom,
Ba$_{2}$NdNbO$_{6}$,2.8499999999999996,eV/atom,
WO$_{3}$,1.2858,eV/atom,
Ba$_{4}$Na$_{2}$CaTi$_{3}$Si$_{4}$(SO$_{13}$)$_{2}$,2.1206000000000005,eV/atom,
Gd$_{3}$RuO$_{7}$,0.15420000000000034,eV/atom,
CoSeO$_{3}$,2.5183,eV/atom,
GaAu,0.0,eV/atom,
LaAlO$_{3}$,4.0189,eV/atom,
LiAg$_{2}$P$_{3}$(HO$_{5}$)$_{2}$,2.4369,eV/atom,
NaF,6.0943,eV/atom,
CeIn$_{4}$Pd,0.0,eV/atom,
HoNiSn,0.0,eV/atom,
C$_{2}$NClO,3.3937,eV/atom,Cl.OCCN
C,0.0,eV/atom,[C]
SbSeCl$_{9}$,1.9981,eV/atom,Cl[Se+](Cl)Cl.Cl[Sb-](Cl)(Cl)(Cl)(Cl)Cl
Mo$_{2}$H$_{5}$C$_{5}$N$_{3}$O$_{14}$,0.0017999999999998018,eV/atom,
Cs$_{2}$SnF$_{6}$,5.3373,eV/atom,
SrZnNi(PO$_{4}$)$_{2}$,3.8887000000000005,eV/atom,
Cr$_{2}$(MoO$_{4}$)$_{3}$,2.7182,eV/atom,
Na$_{2}$LiAlP$_{2}$H$_{2}$O$_{9}$,5.1375,eV/atom,
Sm(ZnP)$_{3}$,0.13140000000000063,eV/atom,
ZrIr,0.0,eV/atom,
Ni(AsO$_{3}$)$_{2}$,2.2402,eV/atom,
Na$_{3}$Nd$_{2}$(NO$_{3}$)$_{9}$,3.4965,eV/atom,
Nb$_{7}$Ni$_{6}$,0.0,eV/atom,
Te$_{5}$As$_{2}$Br$_{4}$O$_{5}$F$_{26}$,2.1235999999999997,eV/atom,
RbMn$_{4}$(PO$_{4}$)$_{3}$,3.3575999999999997,eV/atom,
Ca$_{5}$Pt$_{3}$,0.0,eV/atom,
Ti$_{6}$O,0.0,eV/atom,
BaN,0.0,eV/atom,
BeTl$_{2}$F$_{4}$,4.4409,eV/atom,
V$_{2}$Zn$_{2}$O$_{7}$,2.5531,eV/atom,
K$_{2}$CO$_{3}$,3.6392,eV/atom,
Sm$_{2}$TiMnO$_{6}$,1.9061,eV/atom,
Na$_{2}$S$_{5}$,1.7602000000000002,eV/atom,
TbHO$_{2}$,3.9545000000000003,eV/atom,
Lu(GaFe)$_{6}$,0.0,eV/atom,
AlPO$_{4}$,5.5478000000000005,eV/atom,
AgCl,0.9539000000000002,eV/atom,
Ti$_{3}$O$_{5}$,2.0000000000042206E-4,eV/atom,
ZrCl$_{3}$,0.0,eV/atom,
K$_{3}$NaRe$_{2}$O$_{9}$,1.8164,eV/atom,
Ba$_{3}$AlSb$_{3}$,0.4704999999999999,eV/atom,
Si,0.0,eV/atom,
La(BC)$_{2}$,0.0,eV/atom,
C$_{6}$S$_{3}$(N$_{3}$Cl)$_{2}$,0.501,eV/atom,
Ta$_{2}$Hg$_{2}$F$_{11}$,0.9340999999999999,eV/atom,
ZnS,2.0281000000000002,eV/atom,
TmMnGe,0.0,eV/atom,
MgZn$_{5}$,0.0,eV/atom,
CeP$_{2}$O$_{7}$,1.5859,eV/atom,
RbTe,0.8245999999999998,eV/atom,
RbPO$_{4}$,0.0,eV/atom,
In$_{5}$Se$_{5}$Cl,1.0406,eV/atom,
TiSCl$_{6}$O,2.659,eV/atom,
Y$_{2}$InPd$_{2}$,0.0,eV/atom,
AuSe,0.0,eV/atom,
Zr$_{5}$AlNi$_{4}$,0.0,eV/atom,
S,2.4884,eV/atom,
Zr(SeCl$_{6}$)$_{2}$,2.8105,eV/atom,
CaAlBO$_{4}$,4.6961,eV/atom,