formula,Property band_gap,Property band_gap units,Property SMILES
Sr(GeRu)$_{2}$,0.001700000000000479,eV/atom,
TmAgTe$_{2}$,0.6664000000000003,eV/atom,
Tb$_{15}$(Ni$_{4}$P$_{3}$)$_{7}$,0.0,eV/atom,
CrSBr,0.18159999999999998,eV/atom,
MnNbSi,0.0,eV/atom,
Dy$_{5}$Cl$_{11}$,0.0,eV/atom,
VNiAs,0.0,eV/atom,
TlS$_{2}$O$_{9}$,0.0,eV/atom,
BaAl$_{2}$Si$_{3}$(NO)$_{4}$,3.5604,eV/atom,
TiMnO$_{3}$,1.5326,eV/atom,
Ce$_{2}$(SeO$_{3}$)$_{3}$,0.0,eV/atom,
RbSmSe$_{2}$,1.899,eV/atom,
NaCaPO$_{4}$,4.914,eV/atom,
K$_{2}$SrV$_{3}$O$_{9}$,2.1927000000000003,eV/atom,
Nb$_{3}$Cl$_{8}$,0.1459999999999999,eV/atom,
MgO,3.0152,eV/atom,
Pr(WO$_{3}$)$_{5}$,0.0,eV/atom,
H$_{3}$SNO$_{3}$,5.4035,eV/atom,O=S(=O)(O)N
V$_{3}$As,0.0,eV/atom,
Zn$_{3}$As$_{2}$,0.13779999999999992,eV/atom,
BC$_{2}$N,0.7233999999999998,eV/atom,
TbGeRh,0.0,eV/atom,
Sr$_{2}$B$_{4}$Rh$_{5}$,0.0,eV/atom,
LaBPt$_{2}$,0.0,eV/atom,
TeAsF$_{5}$,2.1838,eV/atom,
Sm(NiAs)$_{2}$,0.0,eV/atom,
Ba$_{3}$Bi(ClO)$_{3}$,3.9283,eV/atom,
Tl$_{2}$CS$_{3}$,1.7532,eV/atom,
Ba$_{4}$Br$_{6}$O,4.1634,eV/atom,
Cs$_{2}$As$_{3}$,0.4474999999999998,eV/atom,
Ba$_{2}$UCuO$_{6}$,0.17130000000000045,eV/atom,
YN,0.007600000000000051,eV/atom,
PHOF$_{2}$,7.0024999999999995,eV/atom,FPF.O
USb$_{3}$O$_{2}$F$_{17}$,2.4478,eV/atom,
BaSm$_{2}$CuO$_{5}$,0.0,eV/atom,
UNi$_{4}$Sn,0.0,eV/atom,
KSnS$_{4}$,1.4453,eV/atom,
AlPO$_{4}$,5.4284,eV/atom,
RbLaS$_{2}$,2.6856999999999998,eV/atom,
NiHO$_{2}$,0.0,eV/atom,
Sr$_{2}$ErReO$_{6}$,0.0,eV/atom,
CuW$_{3}$Br$_{7}$,2.0637999999999996,eV/atom,
Gd$_{3}$Se$_{4}$,0.0,eV/atom,
H$_{8}$C$_{2}$S$_{3}$(NO$_{3}$)$_{2}$,5.7914,eV/atom,
K$_{2}$CoP$_{4}$H$_{10}$O$_{17}$,3.0405,eV/atom,
Ag$_{3}$SnP$_{7}$,0.5080999999999998,eV/atom,
BaMo$_{2}$Se$_{2}$O$_{11}$,2.5835999999999997,eV/atom,
Sr$_{2}$CaWO$_{6}$,3.4601000000000006,eV/atom,
K$_{3}$NbS$_{4}$,2.3437,eV/atom,
Cs$_{2}$Np(SO$_{5}$)$_{2}$,0.2934000000000001,eV/atom,
ZnPPd$_{5}$,0.0,eV/atom,
Na$_{2}$MnF$_{5}$,1.693,eV/atom,
ZrInAu$_{2}$,0.0,eV/atom,
Li$_{2}$V$_{2}$(PO$_{4}$)$_{3}$,0.0037000000000002586,eV/atom,
CdB$_{2}$F$_{8}$,5.4624,eV/atom,
Al(HO)$_{3}$,5.2031,eV/atom,
Cs$_{2}$Te$_{3}$,0.6368999999999998,eV/atom,
BaCaB$_{2}$O$_{5}$,4.4673,eV/atom,
CdH$_{8}$C$_{2}$NCl$_{3}$,4.0526,eV/atom,
Si,0.38900000000000023,eV/atom,
EuSnHg,0.0,eV/atom,
Nb$_{3}$SiTe$_{6}$,0.0,eV/atom,
Rb$_{3}$NbO$_{8}$,2.6265,eV/atom,
Y$_{2}$Si$_{5}$Ni$_{3}$,0.0,eV/atom,
RbNiF$_{3}$,4.6929,eV/atom,
Sr$_{2}$ScF$_{7}$,6.364999999999999,eV/atom,
Na$_{2}$SbSO$_{4}$F$_{3}$,4.4339,eV/atom,
AsS(BrF$_{2}$)$_{3}$,2.4875000000000003,eV/atom,
SmCdNi$_{4}$,0.0,eV/atom,
SmS,0.0,eV/atom,
ScCd,0.0,eV/atom,
SmSi$_{3}$Os,0.0,eV/atom,
ReSb(OF$_{4}$)$_{2}$,3.7699,eV/atom,
KP(HO$_{2}$)$_{2}$,5.4785,eV/atom,
Ag$_{2}$Te$_{4}$O$_{11}$,1.1402,eV/atom,
SmC$_{10}$,0.0,eV/atom,[C].[C].[C].[C].[C].[C].[C].[C].[C].[C].[C].[C].[C].[C].[C].[C].[C].[C].[C].[C].[C].[C].[C].[C].[C].[C].[C].[C].[C].[C].[C].[C].[C].[C].[C].[C].[C].[C].[C].[C].[C].[C].[C].[C].[C].[C].[C].[C].[C].[C].[C].[C].[C].[C].[C].[C].[C].[C].[C].[C].[Sm].[Sm].[Sm].[Sm].[Sm].[Sm]
Pr$_{4}$In$_{21}$Pd$_{10}$,0.0,eV/atom,
YSi$_{3}$Ni$_{5}$,0.0,eV/atom,
Gd(BIr)$_{4}$,0.0,eV/atom,
Tl$_{2}$CuI$_{3}$,1.5759999999999996,eV/atom,
NaPrTiO$_{4}$,2.4599,eV/atom,
UCu$_{5}$Sn,0.0037000000000002586,eV/atom,
V$_{2}$Cd(PO$_{5}$)$_{2}$,2.1523000000000003,eV/atom,
Y$_{6}$FeSb$_{2}$,0.0,eV/atom,
Li$_{2}$Mn$_{2}$(SO$_{4}$)$_{3}$,4.4239,eV/atom,
RbTiP$_{2}$O$_{7}$,0.10890000000000022,eV/atom,
YTl$_{3}$,0.0,eV/atom,
UMo,0.0,eV/atom,
Li(SiRh)$_{2}$,0.0,eV/atom,
Er$_{6}$MnBi$_{2}$,0.0,eV/atom,
NaEr(PO$_{3}$)$_{4}$,5.5405,eV/atom,
Sc$_{3}$Ga$_{2}$,0.0,eV/atom,
BaNaFe$_{4}$P$_{6}$H$_{3}$O$_{25}$,0.2597999999999999,eV/atom,
W$_{2}$NCl$_{8}$,0.1574000000000001,eV/atom,
PbIF,2.0757,eV/atom,
LuGeAu,0.0,eV/atom,
Ta$_{3}$SiTe$_{6}$,0.0,eV/atom,
Cs$_{2}$Si$_{2}$Se$_{5}$,2.3927,eV/atom,
Ba$_{4}$W(N$_{2}$Cl)$_{2}$,2.208,eV/atom,
Er$_{2}$Au$_{5}$F$_{21}$,1.7014999999999998,eV/atom,
KTbCr$_{2}$O$_{8}$,2.7192,eV/atom,
TbGe$_{2}$Ir,0.011400000000000077,eV/atom,
TbInAu$_{2}$,0.0,eV/atom,
NaMoAsO$_{6}$,2.6293,eV/atom,
MnH$_{8}$(ClO$_{2}$)$_{2}$,3.8803,eV/atom,
Na$_{2}$W(OF$_{2}$)$_{2}$,4.2853,eV/atom,
NaAlSe$_{2}$,2.1495,eV/atom,
Ba(GaPt)$_{2}$,0.0,eV/atom,
CaSb$_{2}$,0.0,eV/atom,
KLi$_{2}$(HO)$_{3}$,2.796,eV/atom,
KIO$_{3}$,0.0,eV/atom,
Ca(RhO$_{2}$)$_{2}$,0.8186999999999998,eV/atom,
NdBrO,4.4818999999999996,eV/atom,
ThRe$_{2}$,0.0,eV/atom,
BaTbMn$_{2}$O$_{6}$,0.0,eV/atom,
CsLaS$_{2}$,2.5031999999999996,eV/atom,
Tb$_{3}$CuGeS$_{7}$,1.7968000000000002,eV/atom,
Cd$_{13}$(In$_{13}$Se$_{27}$)$_{2}$,5.00000000000167E-4,eV/atom,
Ba(ZnP)$_{2}$,0.0,eV/atom,
Fe$_{3}$SiP$_{5}$O$_{19}$,1.6748,eV/atom,
Sr$_{2}$Cu(BO$_{3}$)$_{2}$,0.022400000000000198,eV/atom,
VPH$_{6}$C$_{2}$N$_{3}$O$_{7}$,1.7746,eV/atom,
Ca$_{2}$Si,0.2911999999999999,eV/atom,
LiMo$_{6}$Cl$_{13}$,2.3579999999999997,eV/atom,
CeIn$_{5}$Rh,0.0,eV/atom,
Cs$_{3}$V$_{4}$Te$_{2}$ClO$_{14}$,2.2750000000000004,eV/atom,
Ba(Ni$_{2}$B)$_{6}$,0.0,eV/atom,
AsCS$_{2}$N$_{2}$OF$_{5}$,2.8282999999999996,eV/atom,
Pr$_{2}$B$_{2}$MoO$_{9}$,3.3727,eV/atom,
SrYSi$_{4}$N$_{7}$,2.7441999999999993,eV/atom,
Cl$_{2}$,2.6476000000000006,eV/atom,[Cl]
TiTl(VS$_{2}$)$_{4}$,0.0,eV/atom,
Ce$_{3}$S$_{2}$O$_{3}$,0.002100000000000435,eV/atom,
Cd$_{3}$H$_{2}$CSeO$_{8}$,2.763,eV/atom,
HoGaO$_{3}$,3.6065,eV/atom,
ZrGeRh,0.0,eV/atom,
SrCaO$_{2}$,3.3236,eV/atom,
Yb(MnGe)$_{6}$,0.0,eV/atom,
CsB$_{5}$O$_{8}$,5.8969000000000005,eV/atom,
Ca$_{4}$LaB$_{3}$O$_{10}$,4.299300000000001,eV/atom,
BaLu$_{2}$O$_{4}$,3.2520999999999995,eV/atom,
Cs$_{3}$Li$_{2}$Cl$_{5}$,5.257300000000001,eV/atom,
Na$_{2}$Co$_{2}$(B$_{4}$O$_{7}$)$_{3}$,2.7498999999999993,eV/atom,
SiC,1.3704,eV/atom,
FeCoPO$_{5}$,1.7627000000000002,eV/atom,
Rb$_{2}$TlAu$_{3}$,0.0,eV/atom,
Na$_{2}$PO$_{3}$F,4.4907,eV/atom,
Re$_{6}$H$_{12}$Pb$_{3}$C$_{2}$S$_{2}$(N$_{2}$O$_{13}$)$_{2}$,2.3448,eV/atom,
AlGe$_{2}$P(H$_{3}$C)$_{8}$,3.8439,eV/atom,[Al](C)C.P([Ge](C)(C)C)[Ge](C)(C)C
La(Al$_{2}$Cr)$_{4}$,0.0,eV/atom,
UInNi$_{2}$,0.0,eV/atom,
Tb$_{4}$CdCo,0.0,eV/atom,
Ce$_{4}$C$_{4}$Br$_{3}$,0.0,eV/atom,
NaCuO,1.2722000000000002,eV/atom,
Tm(Ni$_{2}$As)$_{2}$,0.0,eV/atom,
Ho$_{2}$C,0.0,eV/atom,
Cs$_{2}$VF$_{6}$,2.0370999999999997,eV/atom,
ScH$_{16}$I$_{3}$O$_{8}$,2.5303,eV/atom,
TlSb(PS$_{3}$)$_{2}$,2.1988,eV/atom,
Yb$_{4}$Sb$_{6}$Rh$_{7}$,0.0,eV/atom,
Sb$_{3}$H$_{36}$(C$_{3}$I$_{2}$)$_{4}$,0.0,eV/atom,
CdMoPO$_{6}$,0.7143999999999999,eV/atom,
Co$_{2}$ClO$_{3}$,0.01949999999999985,eV/atom,
Tl(FeTe)$_{3}$,0.0,eV/atom,
CuSi(HO$_{2}$)$_{2}$,0.2538,eV/atom,
YFeCl$_{2}$O$_{3}$,0.15700000000000003,eV/atom,
RbSb,0.5411000000000001,eV/atom,
CsEr(NbBr$_{3}$)$_{6}$,0.9556,eV/atom,
Sr(AsRu)$_{2}$,0.0,eV/atom,
Cs$_{7}$Au$_{5}$O$_{2}$,0.8031999999999999,eV/atom,
Ho$_{2}$CF$_{2}$,1.1355000000000004,eV/atom,
CaGe$_{2}$,0.6408000000000005,eV/atom,
K$_{3}$(PbCl$_{4}$)$_{2}$,0.0938000000000001,eV/atom,
NbNi$_{2}$BO$_{6}$,2.7318000000000002,eV/atom,
KB$_{6}$,0.0,eV/atom,
CaV$_{2}$O$_{4}$,1.5384000000000002,eV/atom,
TbSiNi$_{4}$,0.0,eV/atom,
Li$_{3}$U$_{7}$(PO$_{7}$)$_{5}$,1.925,eV/atom,
Ba$_{3}$Sc$_{4}$,0.0,eV/atom,
Yb(GaS$_{2}$)$_{2}$,2.8668000000000005,eV/atom,
ScFe$_{2}$,0.0,eV/atom,
K$_{8}$BiO$_{3}$,0.0,eV/atom,
Na$_{2}$TiSi$_{4}$O$_{11}$,2.7322999999999995,eV/atom,
Sr$_{3}$MgPtO$_{6}$,2.6841000000000004,eV/atom,
BaHgO$_{2}$,2.2727,eV/atom,
FeCl$_{3}$,0.0,eV/atom,
CdH$_{16}$C$_{4}$S$_{4}$(N$_{4}$Cl)$_{2}$,3.1973000000000003,eV/atom,
SrGe$_{2}$,0.4211999999999998,eV/atom,
HoCo$_{3}$B$_{2}$,0.0,eV/atom,
MgBHO$_{3}$,5.4376999999999995,eV/atom,
Na$_{2}$CrF$_{4}$,2.9927,eV/atom,
K$_{2}$H$_{5}$F$_{7}$,7.1692,eV/atom,
CoAgO$_{2}$,0.3266,eV/atom,
BaDy$_{2}$CuO$_{5}$,0.0,eV/atom,
Ca$_{2}$Ga$_{2}$O$_{5}$,2.1663,eV/atom,[Ca+2].[Ca+2].O=C([O-])C1=CC(O)=C(O)C(O)=C1.O=C([O-])C1=CC(O)=C(O)C(O)=C1
Tb$_{3}$Al,0.0,eV/atom,
MnSbS$_{2}$Br,0.6707999999999998,eV/atom,
Rb$_{3}$Pt,0.0,eV/atom,
Ba$_{2}$NiOsO$_{6}$,0.0,eV/atom,
EuClO,0.0,eV/atom,
Th(BRu)$_{2}$,0.0,eV/atom,
CrHgH$_{18}$N$_{6}$Cl$_{5}$,2.6843000000000004,eV/atom,
BiRhSe,0.37490000000000023,eV/atom,
Nd$_{3}$CuSnSe$_{7}$,1.1974,eV/atom,
Na$_{3}$H$_{6}$S$_{2}$NO$_{10}$,3.7635,eV/atom,
KV$_{4}$P$_{7}$O$_{24}$,1.8430000000000004,eV/atom,
CaB$_{2}$H$_{10}$O$_{9}$,5.2523,eV/atom,
Cu$_{3}$B$_{4}$Pb$_{2}$O$_{11}$,0.0,eV/atom,
GaAsO$_{4}$,3.0696,eV/atom,
K$_{2}$RuCl$_{5}$O,0.10000000000000003,eV/atom,
GaPPt$_{5}$,0.0,eV/atom,
Ni$_{3}$Sb$_{4}$(OF)$_{6}$,3.3930000000000002,eV/atom,
Tl$_{2}$OsCBr$_{2}$OF$_{3}$,0.7049,eV/atom,
Sc$_{6}$Al$_{16}$Ir$_{7}$,0.0,eV/atom,
Li$_{2}$Ti$_{6}$PbO$_{14}$,2.7640000000000002,eV/atom,
BaYFe$_{2}$O$_{5}$,0.09109999999999996,eV/atom,
Dy$_{3}$GaO$_{6}$,3.5851999999999995,eV/atom,[Dy+3].[Dy+3].[Dy+3].O=C([O-])C12OC2C3(O)OC3(O)C(O)=C1.O=C([O-])C12OC2C3(O)OC3(O)C(O)=C1.O=C([O-])C12OC2C3(O)OC3(O)C(O)=C1.O=C([O-])C12OC2C3(O)OC3(O)C(O)=C1.O=C([O-])C12OC2C3(O)OC3(O)C(O)=C1.O=C([O-])C12OC2C3(O)OC3(O)C(O)=C1.O=C([O-])C12OC2C3(O)OC3(O)C(O)=C1.O=C([O-])C12OC2C3(O)OC3(O)C(O)=C1.O=C([O-])C12OC2C3(O)OC3(O)C(O)=C1
DyAsO$_{4}$,3.6275000000000004,eV/atom,
Ho(GeRu)$_{2}$,0,eV/atom,
Tl$_{3}$AsS$_{4}$,1.6893000000000002,eV/atom,
Rb$_{2}$H$_{4}$Pd,3.0255,eV/atom,
Tl$_{2}$Te,0.6448,eV/atom,
GeO$_{2}$,1.3714999999999993,eV/atom,
SrCd$_{11}$,0.0,eV/atom,
Li$_{6}$Ca$_{12}$Mo$_{4}$N$_{16}$O$_{3}$,2.4805,eV/atom,
LaNi$_{5}$P$_{3}$,0.0,eV/atom,
CaHBr,4.1139,eV/atom,
Pr$_{3}$Al,0.0,eV/atom,
Ba$_{2}$P$_{2}$O$_{7}$,5.1483,eV/atom,
As$_{9}$Pb$_{7}$S$_{20}$,0.0,eV/atom,
Ba$_{2}$ZnO$_{3}$,2.6719,eV/atom,
RbLuSe$_{2}$,2.0335,eV/atom,
Ga$_{2}$Te$_{2}$Cl$_{7}$,1.4191,eV/atom,
SiH$_{10}$(O$_{2}$F$_{3}$)$_{2}$,6.5957,eV/atom,[H+].[H+].F[Si-2](F)(F)(F)(F)F.O.O.O.O
Sm(CoGe)$_{2}$,0.0,eV/atom,
TiI$_{3}$,0.1604000000000001,eV/atom,
LiH$_{4}$SNO$_{4}$,5.2707,eV/atom,
K$_{4}$AsH$_{5}$S$_{3}$O$_{16}$,3.9373,eV/atom,
CaPd$_{2}$,0.0,eV/atom,
Pr$_{5}$(CBr$_{4}$)$_{2}$,0.6061000000000001,eV/atom,
Rb$_{2}$MnH$_{2}$OF$_{5}$,1.3359999999999999,eV/atom,
Nd(AsPd)$_{2}$,0.0,eV/atom,
LuH$_{2}$,0.0,eV/atom,
LiAg$_{2}$Ge,0.0,eV/atom,
La$_{6}$Ti$_{3}$Se$_{9}$O$_{5}$,0.05629999999999935,eV/atom,
Ba$_{3}$CoSb$_{2}$O$_{9}$,1.8777,eV/atom,
PaC$_{2}$,0.0,eV/atom,
CrP$_{2}$H$_{14}$(NO$_{3}$)$_{3}$,3.7499,eV/atom,
Cs$_{2}$PO$_{3}$F,4.3991,eV/atom,
Lu(SiRu)$_{2}$,0.0,eV/atom,
CeZnGa,0.0,eV/atom,
Yb(SiNi)$_{2}$,0.0,eV/atom,
CsCd(PO$_{3}$)$_{3}$,4.316,eV/atom,
TePCl$_{9}$,1.7973000000000001,eV/atom,
BaNd$_{2}$FeS$_{5}$,0.0,eV/atom,
HgBrN,0.0,eV/atom,
C(SN)$_{2}$,0.5421,eV/atom,
ZnH$_{20}$S$_{2}$(NO$_{7}$)$_{2}$,4.9405,eV/atom,
Ba(MgBi)$_{2}$,0.3967999999999998,eV/atom,
YAl$_{2}$,0.0,eV/atom,
Ca(GeAu)$_{2}$,0.0,eV/atom,
SbH$_{24}$C$_{6}$(NCl$_{2}$)$_{3}$,3.5956,eV/atom,
Nb$_{3}$Bi,0.0,eV/atom,
SmZnRh,0.0,eV/atom,
Xe,6.2086,eV/atom,[Xe]
MnFeH$_{14}$O$_{7}$F$_{5}$,0.0,eV/atom,
SmTlZn,0.0,eV/atom,
ThZr$_{2}$H$_{7}$,0.0,eV/atom,
NdNiSb$_{2}$,0.0,eV/atom,
NdPPd,0.0,eV/atom,
CuH$_{12}$(IN)$_{4}$,0.7494999999999999,eV/atom,
Zn(PO$_{3}$)$_{2}$,4.7071,eV/atom,
Li$_{2}$H$_{6}$Pt,2.8715,eV/atom,
YbFeO$_{3}$,0.0,eV/atom,
Rb$_{5}$Nb$_{3}$OF$_{18}$,3.9867,eV/atom,
Mn$_{3}$AgAs$_{3}$(HO$_{6}$)$_{2}$,1.2202000000000002,eV/atom,
LuSn$_{2}$,0.0,eV/atom,
Fe$_{3}$Co,0.0,eV/atom,
CsAlO$_{2}$,4.273499999999999,eV/atom,
CsFe$_{2}$S$_{3}$,0.0,eV/atom,
TiFe$_{2}$,0.0,eV/atom,
TiGeSb,0.0,eV/atom,
Cs$_{3}$BS$_{3}$,2.5301,eV/atom,
AlHg$_{3}$(OF$_{3}$)$_{2}$,0.06469999999999998,eV/atom,
NaSc(GeO$_{3}$)$_{2}$,3.5523000000000002,eV/atom,
BaPb$_{3}$,0.0,eV/atom,
LiSi$_{3}$Pd,0.0,eV/atom,
MnNb$_{2}$O$_{6}$,2.5349000000000004,eV/atom,
NiCl$_{2}$,0.7567000000000002,eV/atom,
ZrReSi,0.0,eV/atom,
GeRu,0.1852999999999998,eV/atom,
Ce(P$_{3}$Os)$_{4}$,0.23730000000000118,eV/atom,
SrYbSi$_{4}$N$_{7}$,0.0,eV/atom,
NbGaO$_{4}$,3.4003,eV/atom,
Zr$_{2}$Al$_{3}$C$_{4}$,0.0,eV/atom,
KGd(PO$_{3}$)$_{4}$,3.2157,eV/atom,
La$_{4}$B$_{10}$O$_{21}$,4.138800000000001,eV/atom,
UInPt$_{2}$,0.0,eV/atom,
KZnSb,0.3487999999999998,eV/atom,
Y(SiOs)$_{2}$,0.0,eV/atom,
LiH$_{2}$N$_{3}$O,3.6515,eV/atom,
Na$_{5}$SnSb$_{3}$,0.23270000000000035,eV/atom,
CdI$_{2}$,2.4047,eV/atom,
NaH$_{2}$C$_{2}$N$_{3}$O,3.7863,eV/atom,
NaP$_{2}$H$_{5}$O$_{8}$,5.6429,eV/atom,
PuB,0.0,eV/atom,
Pr$_{3}$(AgSn)$_{4}$,0.0,eV/atom,
ScPt,0.0,eV/atom,
KB$_{3}$(HO$_{3}$)$_{2}$,4.8267,eV/atom,
YH$_{5}$(SeO$_{4}$)$_{2}$,4.4593,eV/atom,
Tb$_{2}$Ga$_{8}$Co,0.0,eV/atom,
Na$_{4}$Sn$_{3}$F$_{10}$,3.5349,eV/atom,
PbI$_{2}$,2.3956999999999997,eV/atom,
CaCo$_{4}$(CuO$_{4}$)$_{3}$,0.0,eV/atom,
H$_{2}$RhN$_{2}$Cl$_{5}$O,0.0,eV/atom,
NdHSO$_{5}$,5.5593,eV/atom,
MgH$_{8}$(IO$_{5}$)$_{2}$,4.1474,eV/atom,
GdHg,0.00990000000000002,eV/atom,
GaCuCl$_{4}$,1.8149000000000002,eV/atom,
SbN$_{2}$F$_{5}$,1.7610999999999999,eV/atom,
Cd$_{5}$Au$_{3}$,0.0,eV/atom,
Fe$_{3}$BO$_{5}$,1.0194999999999994,eV/atom,
Sc$_{2}$MnGe,0.0,eV/atom,
MgGeP$_{2}$,1.4962,eV/atom,
CdGeO$_{3}$,0.8428,eV/atom,
Pr$_{5}$Si$_{3}$,0.0,eV/atom,
BaB$_{8}$O$_{13}$,5.5451,eV/atom,
Ba$_{3}$Ta$_{6}$Si$_{4}$O$_{23}$,0.0,eV/atom,
BaNaNdSi$_{2}$O$_{7}$,4.4466,eV/atom,
LiGeBO$_{4}$,4.526400000000001,eV/atom,
Ba(FeP)$_{2}$,0.0,eV/atom,
Ba$_{2}$LaReO$_{6}$,0.0,eV/atom,
Sr$_{5}$Ge$_{3}$,0.0,eV/atom,
Lu$_{4}$B$_{3}$C$_{4}$,0.0,eV/atom,
Al$_{4}$Bi$_{2}$O$_{9}$,2.7529000000000003,eV/atom,
Er$_{2}$S$_{3}$,0.6326999999999998,eV/atom,
SiO$_{2}$,6.106,eV/atom,
K$_{3}$Y$_{3}$(BO$_{3}$)$_{4}$,4.1596,eV/atom,
ScMnSi,0.0,eV/atom,
Rb$_{14}$Si$_{10}$O$_{17}$,1.4054,eV/atom,
BaSO$_{4}$,4.5086,eV/atom,
NaSiBO$_{4}$,5.5274,eV/atom,
HfPbO$_{3}$,2.4163000000000006,eV/atom,
BaNd$_{2}$Mn$_{2}$O$_{7}$,0,eV/atom,
Np(NiGe)$_{2}$,0.0,eV/atom,
Ba$_{2}$TiOF$_{6}$,3.8913,eV/atom,
Li$_{2}$TiSiO$_{5}$,3.2152999999999996,eV/atom,
VInO$_{4}$,2.8615000000000004,eV/atom,
Cs$_{2}$NaTiF$_{6}$,0.1036999999999999,eV/atom,
Ti$_{3}$Al$_{2}$NiN,0.0,eV/atom,
Ca$_{3}$Y$_{2}$(GeO$_{4}$)$_{3}$,3.2592,eV/atom,
Hf(MoO$_{4}$)$_{2}$,3.2774,eV/atom,
LiNiAsO$_{4}$,2.8263,eV/atom,
Ce(SiPd)$_{2}$,0.0,eV/atom,
PrMnGeO$_{5}$,1.0943999999999998,eV/atom,
TiPd$_{3}$,0.0,eV/atom,
AgH$_{12}$C$_{6}$N$_{5}$O$_{3}$,2.8931,eV/atom,
BaCuP$_{2}$O$_{7}$,0.3489,eV/atom,
CeMgPt,0.0,eV/atom,
K$_{2}$Se$_{2}$O$_{5}$,3.5338999999999996,eV/atom,
PH$_{8}$N$_{2}$O$_{3}$F,4.7799,eV/atom,
Na$_{2}$TiF$_{6}$,4.7506,eV/atom,
RbCd(NO$_{2}$)$_{3}$,2.352,eV/atom,
Sb$_{2}$IBr$_{2}$F$_{11}$,1.6859000000000002,eV/atom,
Ca$_{3}$AlSb$_{3}$,0.25239999999999974,eV/atom,
CeCu$_{2}$,3.00000000000189E-4,eV/atom,
UBN,0.0,eV/atom,
ErNi$_{4}$Au,0.0,eV/atom,
Hg$_{4}$OF$_{6}$,0.1975,eV/atom,
CaNb$_{2}$(P$_{2}$O$_{7}$)$_{3}$,2.3702,eV/atom,
Tl$_{3}$PbCl$_{5}$,3.2824000000000004,eV/atom,
Li$_{2}$Ge$_{7}$O$_{15}$,2.8600999999999996,eV/atom,
YbMnO$_{3}$,0.0,eV/atom,
SiO$_{2}$,3.6123,eV/atom,
TmSe,0.0,eV/atom,
TiSiOs,0.0,eV/atom,
Cu$_{3}$BiTe$_{2}$ClO$_{8}$,0.054199999999999804,eV/atom,
Na$_{3}$MnF$_{6}$,1.6641,eV/atom,
Fe$_{3}$BO$_{6}$,1.7876999999999996,eV/atom,
Mn$_{2}$In(CO)$_{9}$,2.0948,eV/atom,
PrInCo$_{2}$,0.0,eV/atom,
Gd(Ge$_{2}$Rh$_{3}$)$_{2}$,0.0,eV/atom,
Ce$_{3}$Co$_{4}$Sn$_{13}$,0.0,eV/atom,
NdCd$_{2}$Pd,0.0,eV/atom,
K$_{3}$CuB$_{2}$P$_{4}$H$_{3}$O$_{17}$,0.7381,eV/atom,
Os(SeCl$_{6}$)$_{2}$,0.0736,eV/atom,
LiMgSnPd,0.0,eV/atom,
Sc$_{2}$BC$_{2}$,0.0,eV/atom,
SrCu$_{2}$Te$_{2}$(ClO$_{3}$)$_{2}$,0.0,eV/atom,
CsSmMnSe$_{3}$,0.504,eV/atom,
ScCu,0.0,eV/atom,
Mg$_{2}$Tl$_{2}$(MoO$_{4}$)$_{3}$,3.8757,eV/atom,
TePb$_{2}$O$_{5}$,2.1304999999999996,eV/atom,
Sr$_{4}$Cl$_{6}$O,4.5588999999999995,eV/atom,
SrTi$_{2}$O$_{5}$,1.9511,eV/atom,
Pr$_{3}$TaO$_{7}$,3.4198999999999997,eV/atom,
TeO$_{2}$,3.0604,eV/atom,
CaTa$_{4}$O$_{11}$,3.5437000000000003,eV/atom,
H$_{5}$W,0.0,eV/atom,
EuMn$_{4}$(CuO$_{4}$)$_{3}$,0.0,eV/atom,
CeAg$_{2}$,0.0,eV/atom,
YCo,0.0,eV/atom,
Cs$_{3}$Mo$_{4}$P$_{3}$O$_{16}$,0.10060000000000002,eV/atom,
TbInRh,0.0,eV/atom,
Pr$_{3}$PtI$_{3}$,0.0,eV/atom,
Y$_{4}$TiSi$_{2}$(O$_{3}$F$_{2}$)$_{3}$,2.7199,eV/atom,
Nb$_{2}$AsC,0.0,eV/atom,
KIrO$_{3}$,0.0,eV/atom,
Co(TePd)$_{2}$,0.0,eV/atom,
RbAlF$_{4}$,6.9365,eV/atom,
NaPt$_{2}$Se$_{3}$,0.9887000000000001,eV/atom,
Fe$_{2}$(SeO$_{4}$)$_{3}$,2.2467,eV/atom,
HoB$_{2}$Ru$_{3}$,0.0,eV/atom,
Na$_{6}$ZnH$_{4}$(S$_{2}$O$_{9}$)$_{2}$,5.0922,eV/atom,
BP(IBr)$_{3}$,1.9337,eV/atom,
Ta$_{9}$Pb$_{12}$O$_{20}$F$_{29}$,2.4922999999999997,eV/atom,
RbH$_{3}$(SO$_{4}$)$_{2}$,5.6712,eV/atom,
K$_{5}$Ti$_{3}$F$_{14}$,0.0,eV/atom,
Ba$_{2}$NbInO$_{6}$,3.3486000000000002,eV/atom,
Tb(MnGe)$_{2}$,0.0,eV/atom,
Lu(BRh)$_{4}$,0.0,eV/atom,
KAl$_{2}$P$_{2}$H$_{4}$O$_{11}$,0.7236000000000001,eV/atom,
Zn$_{3}$Fe$_{2}$(CN)$_{12}$,0.03639999999999999,eV/atom,
S(IO$_{3}$)$_{2}$,1.8695000000000002,eV/atom,
LaH$_{16}$C$_{2}$N$_{11}$O$_{17}$,3.5553999999999997,eV/atom,
ZnPS$_{3}$,1.98,eV/atom,
FePt,0.0,eV/atom,
NbSeOF$_{7}$,4.5146999999999995,eV/atom,
TiHgO$_{3}$,1.3445999999999998,eV/atom,
Sr$_{3}$MnN$_{3}$,0.0,eV/atom,
AlTl(MoO$_{4}$)$_{2}$,3.8676,eV/atom,
InOF$_{2}$,0.5569999999999999,eV/atom,
Ag$_{3}$N$_{5}$O$_{6}$,2.1573,eV/atom,
SrMn$_{2}$(PO$_{4}$)$_{2}$,3.3013000000000003,eV/atom,
CaAsH$_{5}$O$_{6}$,4.0367,eV/atom,
Ga(BiBr)$_{4}$,1.5866,eV/atom,
NbTe$_{4}$Ir,0.0,eV/atom,
Ba$_{2}$(InP)$_{5}$,0.3087,eV/atom,
Y$_{2}$Al,0.0,eV/atom,
LiTi$_{2}$(PO$_{4}$)$_{3}$,2.4404,eV/atom,
KRhF$_{6}$,0.0,eV/atom,
FeSb$_{2}$WC$_{8}$Se$_{2}$(O$_{2}$F$_{3}$)$_{4}$,2.2688,eV/atom,
YB$_{12}$,0.0,eV/atom,
Mo$_{15}$S$_{19}$,0.0,eV/atom,
Cr$_{6}$Si$_{7}$Ni$_{16}$,0.0,eV/atom,
LuCoC$_{2}$,0.0,eV/atom,
NdSnRh,0.0,eV/atom,
Li$_{5}$ReO$_{6}$,2.2088,eV/atom,
Mn$_{3}$SiNi$_{2}$,0.0,eV/atom,
CuI,1.6338,eV/atom,
BaAl$_{4}$,0.0,eV/atom,
KNaP$_{2}$H$_{2}$O$_{7}$,5.2201,eV/atom,
WS$_{2}$,1.8407999999999998,eV/atom,
Eu$_{4}$Br$_{6}$O,0.7505999999999999,eV/atom,
Na$_{2}$MnP$_{2}$O$_{7}$,3.9203,eV/atom,
Pr$_{5}$Co$_{19}$B$_{6}$,0.0030999999999998806,eV/atom,
ZrH$_{16}$C$_{5}$N$_{2}$O$_{3}$F$_{4}$,3.7171,eV/atom,
ZrCd$_{3}$,0.0,eV/atom,
Pr(Al$_{4}$Co)$_{2}$,0.0,eV/atom,
BaIn$_{4}$,0.0,eV/atom,
Sr$_{2}$Ga$_{2}$S$_{5}$,2.5153,eV/atom,
V$_{3}$Cd,0.0,eV/atom,
Hg$_{3}$TeCl$_{4}$,2.2498,eV/atom,
Zr(VGa$_{2}$)$_{2}$,0.0,eV/atom,
ScZnPd,0.0,eV/atom,
Sr$_{2}$Si,0.0,eV/atom,
Lu$_{3}$B$_{5}$O$_{12}$,5.426500000000001,eV/atom,
LiH$_{2}$SNO$_{3}$,5.017099999999999,eV/atom,
ZnB$_{2}$(CN)$_{8}$,5.5121,eV/atom,
GeTe$_{7}$As$_{4}$,0.4128999999999996,eV/atom,
Ca$_{10}$Mg$_{2}$Sb$_{9}$,0.0,eV/atom,
CuBi$_{2}$(SeO$_{3}$)$_{4}$,0.5594000000000001,eV/atom,
Y$_{2}$Si$_{5}$Rh$_{3}$,0.0,eV/atom,
LiH$_{2}$N,3.1357999999999997,eV/atom,
BaPd,0.12450000000000028,eV/atom,
Cd$_{4}$Te$_{6}$Cl$_{6}$O$_{13}$,3.3116999999999996,eV/atom,
CsLi$_{4}$(BO$_{2}$)$_{5}$,4.4885,eV/atom,
LiTiP$_{2}$O$_{7}$,0.16549999999999976,eV/atom,
PrGaCo,0.0,eV/atom,
CdI$_{2}$,2.3663000000000003,eV/atom,
Sb$_{8}$Cl$_{2}$O$_{11}$,2.8915,eV/atom,
Hg$_{3}$TeBr$_{4}$,1.9365999999999999,eV/atom,
Tl$_{5}$Te$_{3}$,0.0,eV/atom,
Ho$_{7}$Rh$_{3}$,0.0,eV/atom,
AsKrF$_{7}$,2.4572000000000003,eV/atom,
Rb$_{2}$CuH$_{4}$(C$_{2}$O$_{5}$)$_{2}$,0.5337000000000001,eV/atom,
CePRuO,0.0,eV/atom,
Nb$_{2}$AgPS$_{10}$,1.3724999999999996,eV/atom,
Dy(Ni$_{2}$As)$_{2}$,0.0,eV/atom,
Tl$_{2}$Cu(CO$_{3}$)$_{2}$,0.16129999999999978,eV/atom,
NaB(CN)$_{4}$,6.4949,eV/atom,
HoInCu$_{2}$,0.0,eV/atom,
NaAs$_{4}$BrO$_{6}$,3.0496999999999996,eV/atom,
TaPCl$_{10}$,2.3345,eV/atom,
Ca$_{4}$Ti$_{3}$O$_{10}$,2.5547999999999997,eV/atom,
Zn$_{3}$Ni$_{2}$Ge,0,eV/atom,
Fe$_{3}$Ge,0.0,eV/atom,
NaH,3.7666,eV/atom,
Sm$_{2}$(PPt$_{2}$)$_{3}$,0.0,eV/atom,
Ba$_{2}$Sb,0.0,eV/atom,
YH$_{16}$C$_{4}$N$_{9}$O$_{16}$,1.9535,eV/atom,
Al$_{3}$Bi$_{5}$I$_{12}$,1.2291,eV/atom,
LiCaPb,0.0,eV/atom,
TlCr$_{5}$Se$_{8}$,3.9999999999995595E-4,eV/atom,
MnCr$_{2}$O$_{4}$,2.3724000000000003,eV/atom,
P$_{2}$W$_{9}$O$_{31}$,0.0,eV/atom,
K$_{2}$P$_{2}$H$_{2}$O$_{7}$,5.0961,eV/atom,
PrTl(MoO$_{4}$)$_{2}$,3.5819999999999994,eV/atom,
Ce(GePd)$_{2}$,0.0,eV/atom,
Pu$_{2}$InNi$_{2}$,0.0,eV/atom,
AgTe$_{2}$Au,0.0,eV/atom,
Cs$_{2}$LiCr(CN)$_{6}$,1.7163,eV/atom,
CdI$_{2}$,2.4115,eV/atom,
Na$_{2}$Tl,0.0,eV/atom,
P$_{4}$SO$_{7}$,4.0531999999999995,eV/atom,
Na$_{8}$Si$_{7}$O$_{18}$,4.4437,eV/atom,
Li$_{2}$RuF$_{6}$,0.0398,eV/atom,
CaMnGe,0.0,eV/atom,
U(RhO$_{3}$)$_{2}$,0.4231999999999996,eV/atom,
SrLi$_{2}$Nb$_{2}$O$_{7}$,1.4673,eV/atom,
Na$_{3}$AlSe$_{3}$,2.3816,eV/atom,
TlAg(CN)$_{2}$,2.6981,eV/atom,
SrZrO$_{3}$,3.3637000000000006,eV/atom,