formula,Property band_gap,Property band_gap units,Property SMILES
Eu$_{3}$(GeIr)$_{4}$,0.0,eV/atom,
SnHC$_{2}$O$_{3}$,2.1353000000000004,eV/atom,
Ce$_{7}$Ni$_{3}$,0.0,eV/atom,
Ca$_{5}$P$_{3}$H,0.6834999999999996,eV/atom,
KBe$_{2}$BO$_{3}$F$_{2}$,5.9928,eV/atom,
Pr(GePt)$_{2}$,0.0,eV/atom,
HoMgSn,0.0,eV/atom,
Ag$_{7}$NO$_{6}$,0.0,eV/atom,
K$_{2}$Be$_{2}$Zn$_{2}$Si$_{3}$O$_{11}$,3.5046999999999997,eV/atom,
HgC$_{2}$(SeN)$_{2}$,2.1984,eV/atom,
Ba$_{3}$GaSb$_{3}$,0.34189999999999987,eV/atom,
KAl$_{2}$Br$_{7}$,4.128,eV/atom,
Ru$_{6}$C$_{17}$S$_{2}$O$_{17}$,0.9013,eV/atom,
Li$_{2}$AgSb,0.14290000000000003,eV/atom,
Te$_{3}$I(OF$_{5}$)$_{3}$,1.9785,eV/atom,
AlTeCl$_{7}$,3.2790999999999997,eV/atom,
Na$_{3}$GeTe$_{3}$,1.3032000000000001,eV/atom,
Sr$_{2}$MgH$_{6}$,2.7286,eV/atom,
CaCuAsHO$_{5}$,0.2830999999999997,eV/atom,
KNa$_{4}$GaO$_{4}$,2.6018,eV/atom,
NiBiAsO$_{5}$,3.0150999999999994,eV/atom,
K$_{3}$Nd(AsS$_{4}$)$_{2}$,1.6896,eV/atom,
Ba(GaS$_{2}$)$_{2}$,2.8998999999999997,eV/atom,
FeMoClO$_{4}$,2.2058999999999997,eV/atom,
La(AlZn)$_{2}$,0.0,eV/atom,
Ge$_{3}$Pb$_{5}$O$_{11}$,2.4115,eV/atom,
TiCu$_{2}$P,0.0,eV/atom,
Ta(BMo)$_{2}$,0.0,eV/atom,
Cu$_{3}$NiH$_{6}$(ClO$_{3}$)$_{2}$,0.0,eV/atom,
MoRh,0.0,eV/atom,
Gd$_{3}$BWO$_{9}$,3.1839000000000004,eV/atom,
Eu$_{2}$H$_{3}$Cl,0.07819999999999983,eV/atom,
MnI$_{2}$,1.1707,eV/atom,
Na$_{3}$Cd$_{2}$IrO$_{6}$,0.0,eV/atom,
EuCd$_{11}$,0.0,eV/atom,
Ba$_{3}$Zr$_{6}$BeCl$_{18}$,1.0267999999999997,eV/atom,
LaCl,0,eV/atom,
In$_{2}$CuO$_{4}$,0.0,eV/atom,
Te$_{4}$As$_{2}$S(OF$_{6}$)$_{2}$,1.2113,eV/atom,
Zr$_{2}$Al$_{3}$,0.0,eV/atom,
Mn$_{3}$V$_{2}$(SiO$_{4}$)$_{3}$,0.0,eV/atom,
Ba$_{2}$TaN$_{3}$,2.0175,eV/atom,
K$_{4}$(TiTe$_{3}$)$_{3}$,0.0,eV/atom,
Sm$_{4}$Si$_{2}$S$_{3}$O$_{7}$,2.5838,eV/atom,
NpOs$_{2}$,0.0,eV/atom,
BaSm$_{2}$FeS$_{5}$,0.0,eV/atom,
RbSnIO$_{6}$,2.1505,eV/atom,
Sr$_{3}$(PO$_{4}$)$_{2}$,5.4064000000000005,eV/atom,
LiCu$_{2}$Si,0.0,eV/atom,
BaSn(PO$_{4}$)$_{2}$,3.6952999999999996,eV/atom,
Tb(Al$_{2}$Cu)$_{4}$,0.0,eV/atom,
VNiP,0.0,eV/atom,
Pr(NiGe)$_{2}$,0.0,eV/atom,
HgH$_{12}$(ClO$_{7}$)$_{2}$,3.481,eV/atom,
CdRe$_{2}$(H$_{2}$O$_{5}$)$_{2}$,0.19140000000000001,eV/atom,
ZnS,2.0251,eV/atom,
Ba$_{2}$GeAs$_{2}$,0.5171000000000001,eV/atom,
TiTl$_{3}$F$_{6}$,0.0,eV/atom,
NpBi,0.0,eV/atom,
H$_{3}$W,0.0,eV/atom,
Ca$_{9}$Cd$_{4}$Bi$_{9}$,0.07719999999999994,eV/atom,
MnN,0.0,eV/atom,
Fe$_{3}$Pt,0.0,eV/atom,
OsC,0.2793000000000001,eV/atom,
HoCoC$_{2}$,0.0,eV/atom,
Sr$_{2}$GaSbO$_{6}$,0.7291000000000003,eV/atom,
NdFeCo$_{3}$B,0.0,eV/atom,
AlPt$_{3}$,0.0,eV/atom,
Sm$_{3}$Al,0.0,eV/atom,
BW,0.0,eV/atom,
HoZnIn,0.0,eV/atom,
K$_{3}$Sb$_{2}$Au$_{3}$,1.1063,eV/atom,
PbBrCl,3.4375999999999998,eV/atom,
TbP$_{5}$O$_{14}$,5.362,eV/atom,
CoPH$_{4}$ClO$_{3}$,3.0437,eV/atom,[Cl-].[Co+2].O=[PH2][O-].O
LaCd(BO$_{2}$)$_{5}$,4.3762,eV/atom,
USeO$_{6}$,2.0194,eV/atom,
YbV$_{4}$O$_{8}$,0.8961000000000001,eV/atom,
Sm$_{13}$Cd$_{58}$,0.0,eV/atom,
Sr$_{2}$CdAs$_{2}$,0.5215000000000001,eV/atom,
HgH$_{12}$C$_{2}$(Br$_{2}$N$_{3}$)$_{2}$,2.7644,eV/atom,
Sr$_{5}$B$_{3}$O$_{9}$F,4.1747,eV/atom,
CuAs$_{2}$Pb$_{8}$Cl$_{5}$O$_{9}$,1.5363999999999995,eV/atom,
RbGa$_{2}$P$_{5}$O$_{16}$,4.6502,eV/atom,
YbZr$_{6}$(PO$_{4}$)$_{9}$,0.0,eV/atom,
BaLuFe$_{4}$O$_{7}$,0.0,eV/atom,
Ta$_{3}$TeI$_{7}$,0.5472000000000001,eV/atom,
MgMoH$_{2}$O$_{5}$,4.0949,eV/atom,
Na$_{4}$GeSe$_{4}$,1.9803,eV/atom,
KCuPdSe$_{5}$,1.0179,eV/atom,
La$_{2}$Sn$_{2}$O$_{7}$,2.6590999999999996,eV/atom,
SnTePd,0.0,eV/atom,
NaLi$_{2}$BO$_{3}$,3.9589,eV/atom,
YEr$_{4}$Al$_{15}$,0.0,eV/atom,
Y$_{6}$OsI$_{10}$,0.0,eV/atom,
MoAs$_{2}$,0.0,eV/atom,
KUVO$_{6}$,1.9806,eV/atom,
Mg$_{3}$Si$_{8}$Ir$_{3}$,0.0,eV/atom,
ErMgSn,0.0,eV/atom,
K$_{2}$Ni$_{2}$(SO$_{4}$)$_{3}$,3.8754000000000004,eV/atom,
KNbO$_{3}$,1.4120999999999997,eV/atom,
K$_{2}$SiF$_{6}$,7.1895,eV/atom,
TbB$_{2}$Rh$_{3}$,0.0,eV/atom,
CdI$_{2}$,2.3217999999999996,eV/atom,
Ho$_{6}$Fe$_{16}$O,0.0,eV/atom,
TiGaNi,0.0,eV/atom,
Cu$_{10}$Sn$_{3}$,0.0,eV/atom,
LiLa$_{2}$FeO$_{6}$,0.7263999999999999,eV/atom,
Ba$_{2}$CuF$_{6}$,0.0,eV/atom,
NdCdNi$_{4}$,0.0,eV/atom,
Ti$_{2}$InCo,0.0,eV/atom,
Na$_{4}$Pu(MoO$_{4}$)$_{4}$,0.15979999999999994,eV/atom,
HSO$_{3}$F,3.0957,eV/atom,O=S(=O)(F)O
NdFe$_{5}$,0.0,eV/atom,
Dy$_{5}$Mg$_{24}$,0.0,eV/atom,
Li$_{4}$ZrGe$_{2}$,0.0,eV/atom,
FeTeCl$_{7}$,1.2702,eV/atom,
Y$_{3}$InC,0.0,eV/atom,
Cr$_{2}$CdH$_{14}$(NO$_{2}$)$_{4}$,2.8216,eV/atom,
NaErS$_{2}$,2.3333,eV/atom,
AlS$_{2}$(NCl$_{2}$)$_{2}$,1.0461999999999998,eV/atom,
Cr$_{3}$Si$_{5}$,0.0,eV/atom,
Cs$_{4}$CuSi$_{2}$O$_{7}$,0.7267000000000001,eV/atom,
ErSn$_{3}$,0.0,eV/atom,
Sc$_{3}$As$_{2}$,0.0,eV/atom,
UAgIO$_{6}$,1.2936999999999999,eV/atom,
Dy(Mo$_{3}$S$_{4}$)$_{2}$,0.0,eV/atom,
KAuC$_{2}$(SN)$_{2}$,2.2406,eV/atom,
KNO$_{2}$,2.5269,eV/atom,
V$_{2}$O$_{5}$,1.6982,eV/atom,
CsNbF$_{6}$,5.203,eV/atom,
Mn$_{2}$CoAs,0.0,eV/atom,
Ce(Ni$_{2}$Sn)$_{2}$,0.0,eV/atom,
NaCe(PSe$_{3}$)$_{2}$,0.1418999999999997,eV/atom,
Sr$_{2}$C$_{2}$N$_{3}$,0.0,eV/atom,
Hg$_{2}$N$_{2}$O$_{3}$,1.0062,eV/atom,
CrCd$_{3}$Te$_{4}$,0.0,eV/atom,
La$_{2}$Co$_{2}$Se$_{2}$O$_{3}$,0.09309999999999974,eV/atom,
Nb$_{2}$CrSe$_{4}$,0.0,eV/atom,
CuTe,0.0,eV/atom,
P$_{2}$Ru,0.47499999999999964,eV/atom,
FePbC$_{5}$N$_{6}$O,2.3329999999999997,eV/atom,
Li$_{2}$H$_{2}$SO$_{5}$,5.5815,eV/atom,
SiO$_{2}$,6.1956,eV/atom,
NaMgP$_{3}$(H$_{4}$O$_{5}$)$_{2}$,6.4413,eV/atom,
LiZnAs,0.5474999999999999,eV/atom,
K$_{3}$Cu$_{3}$As$_{2}$,1.2804,eV/atom,
HoPtF$_{7}$,2.2952,eV/atom,
ZrH$_{6}$O$_{3}$F$_{4}$,5.383,eV/atom,
CsTmS$_{2}$,2.3326000000000002,eV/atom,
LiGaO$_{2}$,3.7357,eV/atom,
La$_{2}$ReNiO$_{6}$,0.38180000000000014,eV/atom,
Hf$_{6}$Cr$_{5}$Si$_{7}$,0.0,eV/atom,
CePO$_{4}$,0.11569999999999947,eV/atom,
Mg$_{4}$Nb$_{2}$O$_{9}$,3.4252000000000002,eV/atom,
KCS$_{2}$N(O$_{2}$F)$_{2}$,4.4578,eV/atom,
Sb$_{2}$XeF$_{14}$,1.9429999999999998,eV/atom,
NaSrP,1.2357,eV/atom,
LaS$_{2}$,0.8245000000000005,eV/atom,
SrCl$_{2}$,5.2286,eV/atom,
Ca$_{9}$Fe(PO$_{4}$)$_{7}$,2.2467000000000006,eV/atom,
SrBNO,3.396,eV/atom,
Y$_{2}$B$_{5}$Pd$_{14}$,0.0,eV/atom,
NpAgSeO$_{5}$,0.07480000000000064,eV/atom,
Ca$_{2}$NCl,2.3688,eV/atom,
HoGePt,0.0,eV/atom,
YRu$_{2}$,0.0,eV/atom,
HgTe,0.47619999999999996,eV/atom,
Ni$_{3}$B$_{7}$ClO$_{13}$,3.1031999999999997,eV/atom,
CaNbO$_{3}$,0.0,eV/atom,
Ca$_{2}$Sb$_{2}$O$_{7}$,1.7338000000000005,eV/atom,
Na$_{2}$SrSn$_{4}$,0.0,eV/atom,
H$_{8}$W(S$_{2}$N)$_{2}$,1.9874,eV/atom,
Ca(B$_{3}$O$_{5}$)$_{2}$,5.8213,eV/atom,
SmMnSi$_{2}$,0.0,eV/atom,
LiIO$_{4}$,2.0725,eV/atom,
P$_{2}$Pb$_{3}$O$_{8}$,3.2968,eV/atom,
NdSe$_{2}$,0.0,eV/atom,
NdInAu,0.0,eV/atom,
K$_{2}$Te$_{2}$As,0.9603999999999999,eV/atom,
Cs$_{2}$In$_{2}$Sb$_{3}$,0.7882999999999996,eV/atom,
Tm$_{3}$Ga$_{8}$Ag$_{3}$,0.0,eV/atom,
TiInAu$_{2}$,0.0,eV/atom,
Lu$_{5}$Sn$_{3}$,0.0,eV/atom,
CuP$_{2}$(HO$_{3}$)$_{2}$,0.0,eV/atom,
TiO$_{2}$,2.9809,eV/atom,
CaB$_{2}$H,0.0,eV/atom,
Tl$_{2}$SnSe$_{3}$,0.9887000000000001,eV/atom,
CsNa$_{2}$BO$_{3}$,3.2483,eV/atom,
BaTiO$_{3}$,1.6669999999999994,eV/atom,
Ca$_{2}$SnGe$_{2}$,0.0,eV/atom,
HoMoO$_{4}$F,3.736,eV/atom,
K$_{2}$Ce(NO$_{3}$)$_{6}$,1.3666,eV/atom,
TbCoSn,0.0,eV/atom,
HoB$_{4}$Ru,0.0,eV/atom,
CsAsF$_{6}$,5.2216,eV/atom,
V$_{6}$O$_{13}$,0.0,eV/atom,
BaMg$_{2}$,0.0,eV/atom,
Rb$_{2}$Li$_{2}$GeO$_{4}$,3.3651,eV/atom,
B$_{2}$W,0.0,eV/atom,
BN(OF$_{2}$)$_{2}$,2.9938000000000002,eV/atom,
SnH$_{8}$(CI)$_{4}$,3.0235999999999996,eV/atom,IC[Sn](CI)(CI)CI
HfFeSi$_{2}$,0.0,eV/atom,
Ba$_{2}$LaC$_{3}$O$_{9}$F,3.9314,eV/atom,
Y$_{7}$C$_{3}$I$_{6}$O,0.0,eV/atom,
BaCu$_{2}$Ge$_{2}$O$_{7}$,0.02159999999999984,eV/atom,
Rb$_{2}$Te,1.7021,eV/atom,
Ge(Te$_{2}$As)$_{2}$,0.3594999999999997,eV/atom,
CsIn$_{3}$,0.0,eV/atom,
LaSn$_{3}$Ru,0.0,eV/atom,
HoFeO$_{3}$,1.5675,eV/atom,
Mn$_{5}$O$_{8}$,0.5512999999999999,eV/atom,
MoP(Cl$_{3}$O)$_{2}$,2.6452,eV/atom,
CaFeF$_{5}$,3.6380999999999997,eV/atom,
SiO$_{2}$,5.719,eV/atom,
CaCd$_{2}$Pd,0.0,eV/atom,
NiH$_{8}$(ClO$_{2}$)$_{2}$,4.2089,eV/atom,
TaCo$_{3}$,0.0,eV/atom,
SOF$_{2}$,5.2887,eV/atom,
KMo$_{5}$O$_{13}$,0.02499999999999991,eV/atom,
ThAlNi,0.0,eV/atom,
HoTe,0.0,eV/atom,
Np(SiPt)$_{2}$,0.012600000000000833,eV/atom,
ZnAg$_{2}$GeO$_{4}$,0.26269999999999993,eV/atom,
Rb$_{2}$Sb$_{2}$OF$_{10}$,3.7737,eV/atom,
Fe$_{4}$As$_{5}$O$_{13}$,1.4954,eV/atom,
HoAgPb,0.0,eV/atom,
NaZn$_{2}$HSe$_{2}$O$_{7}$,3.7643999999999997,eV/atom,
SrV$_{4}$(AgO$_{6}$)$_{2}$,2.0861,eV/atom,
MgSc$_{3}$Ru$_{2}$,0.0,eV/atom,
NaNb$_{3}$(TeO$_{4}$)$_{4}$,2.0237000000000003,eV/atom,
LiDySn$_{2}$,0.0,eV/atom,
RbFeO$_{2}$,2.1275,eV/atom,
SeS$_{4}$N$_{3}$Cl$_{5}$,2.3783,eV/atom,
Na$_{2}$Mg$_{2}$(Si$_{2}$O$_{5}$)$_{3}$,4.410299999999999,eV/atom,
LiZnIO$_{4}$,2.883,eV/atom,
Sr$_{2}$Al,0.0,eV/atom,
SrTe,1.7623000000000002,eV/atom,
RbH$_{4}$SNO$_{4}$,5.0051,eV/atom,[Rb+].O=S(=O)([O-])[O-].[NH4+]
K$_{2}$TeH$_{6}$(O$_{3}$F)$_{2}$,2.9622,eV/atom,
AsC$_{4}$S$_{2}$Cl$_{2}$O$_{2}$F$_{13}$,3.0753,eV/atom,
Rb$_{8}$Fe$_{2}$O$_{7}$,1.6081,eV/atom,
CuH$_{2}$SO$_{5}$,0.375,eV/atom,
Rb$_{3}$AuO,0.2056,eV/atom,
CuW$_{3}$Br$_{7}$,2.1981,eV/atom,
LiCr$_{3}$O$_{8}$,0.6577999999999999,eV/atom,
SbP(OF$_{3}$)$_{2}$,4.3964,eV/atom,
Ca$_{3}$Zn$_{3}$(TeO$_{6}$)$_{2}$,1.8503999999999996,eV/atom,
H$_{7}$C(NO)$_{3}$,3.3559,eV/atom,
LiCaN,1.3784999999999998,eV/atom,
Rb$_{2}$TaAgS$_{4}$,1.8619999999999999,eV/atom,
Li$_{2}$CdPb,0.0,eV/atom,
LiCa$_{2}$Ge$_{3}$,0.0,eV/atom,
CuO,0.0,eV/atom,
TaPd$_{2}$,0.0,eV/atom,
K$_{3}$P$_{5}$RuSe$_{10}$,0.9415,eV/atom,
Ag$_{2}$O$_{3}$,0.0,eV/atom,
Li$_{2}$SnGe,0.0,eV/atom,
Li$_{2}$CaHfF$_{8}$,6.9952000000000005,eV/atom,
Ho(AlCl$_{4}$)$_{3}$,4.31,eV/atom,
Ti$_{4}$GaS$_{8}$,0.0,eV/atom,
CaMg$_{2}$(SO$_{4}$)$_{3}$,5.7585999999999995,eV/atom,
SiI$_{4}$,2.8561,eV/atom,
CaZn$_{3}$Se$_{4}$,1.3082000000000003,eV/atom,
Cd$_{5}$Cu$_{2}$,0.0,eV/atom,
NdCoC$_{2}$,0.0,eV/atom,
Sr$_{2}$IN,1.7917000000000005,eV/atom,
NbNO,1.5539999999999998,eV/atom,
Eu(BIr)$_{4}$,0.03829999999999956,eV/atom,
Sr$_{2}$YRuO$_{6}$,0.18269999999999964,eV/atom,
K$_{4}$CO$_{4}$,1.5969000000000002,eV/atom,
Na$_{5}$ScH$_{4}$(C$_{2}$O$_{7}$)$_{2}$,4.837,eV/atom,
KH$_{5}$S$_{2}$O$_{9}$,5.4879,eV/atom,
Mn(SbO$_{3}$)$_{2}$,1.2785000000000002,eV/atom,
LiP(HO$_{2}$)$_{2}$,5.5778,eV/atom,
MgNi$_{2}$,0.0,eV/atom,
PrCrO$_{4}$,0.24819999999999998,eV/atom,
Tm(CrSi)$_{2}$,0.0,eV/atom,
Ca$_{2}$SiB$_{2}$O$_{7}$,5.735700000000001,eV/atom,
GdMgGa,0.0,eV/atom,
Ba$_{2}$Tb$_{2}$Ti$_{2}$Cu$_{2}$O$_{11}$,0.0,eV/atom,
CaS$_{2}$(ClO$_{3}$)$_{2}$,4.6536,eV/atom,
CaMnO$_{3}$,0.54,eV/atom,
Na$_{3}$Fe$_{3}$(PO$_{4}$)$_{4}$,2.2211000000000003,eV/atom,
Rb$_{2}$SnSe$_{3}$,1.6655,eV/atom,
CuB$_{2}$(CN)$_{8}$,0.8959999999999999,eV/atom,
Tl$_{9}$Pd$_{13}$,0.0,eV/atom,
Eu$_{6}$Mo$_{10}$O$_{39}$,0.7642,eV/atom,
LiFe(PO$_{3}$)$_{3}$,4.001799999999999,eV/atom,
Ir$_{3}$Se$_{8}$,0,eV/atom,
ThBC,0.0,eV/atom,
Zr$_{3}$NiO,0,eV/atom,
BiOF,3.1226000000000003,eV/atom,
HoSnPd$_{2}$,0.0,eV/atom,
Ca$_{2}$B$_{3}$(HO)$_{13}$,5.2486,eV/atom,
Li$_{2}$SO$_{4}$,6.0219,eV/atom,
SmTl(MoO$_{4}$)$_{2}$,3.5343999999999998,eV/atom,
KHfPdF$_{7}$,0.6668,eV/atom,
AlPO$_{4}$,0.06330000000000013,eV/atom,
Ba$_{2}$Mn$_{2}$Se$_{2}$OF$_{2}$,1.9964,eV/atom,
Cs$_{3}$NaPb$_{4}$,0.47540000000000004,eV/atom,
Ca$_{10}$P$_{6}$O$_{25}$,3.1485,eV/atom,
SmPd,0.0,eV/atom,
Li$_{2}$CaTa$_{2}$O$_{7}$,2.1401,eV/atom,
Dy$_{3}$Mn$_{3}$Ga$_{2}$Si,0.0,eV/atom,
Rb$_{3}$TlO$_{3}$,1.4607999999999999,eV/atom,
GdAl$_{2}$Ni,0.0,eV/atom,
CaP$_{3}$,0.024099999999999788,eV/atom,
KY(MoO$_{4}$)$_{2}$,3.589,eV/atom,
Nd$_{3}$PbN,0.0,eV/atom,
MgSiN$_{2}$,4.1796999999999995,eV/atom,
CaSO$_{4}$,5.6745,eV/atom,
Al$_{2}$O$_{3}$,0.0,eV/atom,
CdPS$_{3}$,1.7450999999999999,eV/atom,
CrInCo$_{2}$,0.0,eV/atom,
K(MoS)$_{3}$,1.2123,eV/atom,
Rb$_{3}$Mo$_{2}$Cl$_{9}$,0.9456,eV/atom,
Eu$_{3}$(GaNi)$_{4}$,0.0,eV/atom,
ThAsS,0.0,eV/atom,
Nb$_{2}$FeO$_{6}$,2.2184999999999997,eV/atom,
Cs$_{3}$Sm(PS$_{4}$)$_{2}$,2.1903000000000006,eV/atom,
Li$_{2}$ZrF$_{6}$,6.0773,eV/atom,
GeN$_{2}$OF$_{6}$,0.0,eV/atom,
Tb$_{3}$P$_{4}$Pd$_{7}$,0.0,eV/atom,
TiHg$_{6}$As$_{4}$Cl$_{7}$,0.2645000000000002,eV/atom,
Mn$_{2}$GaCo,0.0,eV/atom,
MoF$_{6}$,4.2538,eV/atom,
KSn$_{2}$Cl$_{5}$,3.0071,eV/atom,
PbSeO$_{3}$,2.8838,eV/atom,
LuAgSn,0.0,eV/atom,
Lu$_{5}$(TeAu)$_{2}$,0.0,eV/atom,
N$_{2}$,6.739,eV/atom,
SrSiO$_{3}$,4.6251,eV/atom,
RhC,0.0,eV/atom,
HfGaPd,0.0,eV/atom,
CsLi$_{3}$F$_{4}$,6.7384,eV/atom,
Li$_{3}$AlH$_{6}$,3.5929,eV/atom,
K$_{4}$PbO$_{4}$,1.6772,eV/atom,
Ce$_{6}$P$_{17}$Pd$_{6}$,0.0,eV/atom,
KBeH$_{3}$,3.0876,eV/atom,
TmCu$_{4}$Ag,0.0,eV/atom,
RbPbI$_{3}$,2.4562,eV/atom,
U$_{5}$Re$_{5}$Si$_{9}$,0.0,eV/atom,
KVH$_{6}$SO$_{9}$,2.9131,eV/atom,
GdMoClO$_{4}$,2.4125,eV/atom,
VP$_{2}$C$_{4}$N$_{3}$(ClF$_{6}$)$_{2}$,3.0262000000000002,eV/atom,
K$_{2}$NbS$_{7}$,1.3203999999999998,eV/atom,
AgF$_{2}$,0.0,eV/atom,
K$_{2}$MgH$_{8}$(SO$_{6}$)$_{2}$,5.18,eV/atom,
Hf$_{3}$P,0.0,eV/atom,
KCr$_{5}$S$_{8}$,0.3523000000000005,eV/atom,
YBO$_{3}$,5.1669,eV/atom,
LiGeTe$_{2}$,0.4629000000000003,eV/atom,
AgC$_{4}$N$_{3}$,3.4675000000000002,eV/atom,
HgBr$_{2}$,2.5412,eV/atom,
ZnIn$_{2}$O$_{4}$,1.1790999999999996,eV/atom,
NaSi$_{2}$N$_{3}$,4.1842999999999995,eV/atom,
ErInAu,0.0,eV/atom,
K$_{2}$CaAs$_{2}$O$_{7}$,3.513,eV/atom,
Zr$_{3}$Ni$_{3}$Sb$_{4}$,0.4371999999999989,eV/atom,
LaMnO$_{3}$,0.0,eV/atom,
TeBrO$_{3}$F$_{5}$,2.7381,eV/atom,
Pr$_{7}$O$_{12}$,0.029100000000000126,eV/atom,
LiNbWO$_{6}$,2.4684,eV/atom,
K$_{4}$CO$_{4}$,2.3811,eV/atom,
Pr$_{10}$S$_{19}$,0.5101000000000004,eV/atom,
MnNb$_{2}$Zn$_{2}$O$_{8}$,2.5005,eV/atom,
KAuCl$_{4}$,1.4392,eV/atom,
Rb$_{6}$Ge$_{2}$O$_{7}$,2.8402000000000003,eV/atom,
Sm$_{4}$S$_{3}$N$_{2}$,1.2922999999999996,eV/atom,
Sr$_{51}$W$_{12}$N$_{56}$O$_{3}$,0.12019999999999964,eV/atom,
Ba(CuP$_{2}$)$_{2}$,0.0,eV/atom,
H$_{5}$C$_{3}$N$_{5}$O,3.5996,eV/atom,
BaZnBO$_{3}$F,3.7420000000000004,eV/atom,
YMn$_{2}$,0.0,eV/atom,
GaFeNi$_{2}$,0.0,eV/atom,
KCu$_{4}$S$_{3}$,0.0,eV/atom,
ScSiNi,0.0,eV/atom,
As$_{2}$O$_{3}$,4.0252,eV/atom,
CrCu(PS$_{3}$)$_{2}$,0.9573999999999998,eV/atom,
SmIn$_{2}$Rh,0.0,eV/atom,
Mn$_{3}$Cu$_{3}$O$_{8}$,0.0,eV/atom,
Pr$_{2}$Pd$_{2}$Pb,0.0,eV/atom,
LiEr(PO$_{3}$)$_{4}$,5.7413,eV/atom,
TbSi$_{2}$,0.0,eV/atom,
Zr(FeGe)$_{6}$,0.0,eV/atom,
UAl$_{3}$Pd$_{2}$,0.0,eV/atom,
Ca$_{2}$CoTeO$_{6}$,1.9623,eV/atom,
Cu$_{6}$Hg$_{3}$(AsS$_{3}$)$_{4}$,0.2770999999999999,eV/atom,
CaV$_{2}$P$_{2}$(H$_{4}$O$_{7}$)$_{2}$,2.2858,eV/atom,
LuAu$_{2}$F$_{9}$,1.8969999999999998,eV/atom,
Si$_{2}$Ag$_{6}$O$_{7}$,0.2254999999999998,eV/atom,
K$_{4}$WO$_{5}$,3.2323,eV/atom,
UH$_{12}$(NO$_{4}$)$_{2}$,2.3374,eV/atom,
YAlGeO$_{5}$,3.811,eV/atom,
HfB$_{2}$,0.0,eV/atom,
CdI$_{2}$,2.4388,eV/atom,
K$_{2}$SnCl$_{6}$,2.4635,eV/atom,
Ba$_{2}$CoAg$_{2}$(SeO)$_{2}$,0.0,eV/atom,
LaZn,0.0,eV/atom,
ErZn,0.0,eV/atom,
Na$_{2}$CaV$_{4}$O$_{12}$,2.9046,eV/atom,
Tm$_{2}$InNi$_{2}$,0.0,eV/atom,
K$_{3}$Nb$_{3}$(BO$_{6}$)$_{2}$,1.9127999999999998,eV/atom,
Na$_{2}$TiCl$_{4}$,0.0,eV/atom,
PuBi,0.0,eV/atom,
La$_{4}$B$_{4}$Br$_{5}$,0.0,eV/atom,
Cs$_{2}$Zr(SiO$_{3}$)$_{3}$,4.789899999999999,eV/atom,
KTeO$_{4}$,0.0,eV/atom,
Pr$_{2}$P$_{3}$Au,0.0,eV/atom,
Cu$_{2}$SiHgS$_{4}$,0.3963000000000001,eV/atom,
Ba$_{2}$CoO$_{4}$,1.0982,eV/atom,
CaCrO$_{3}$,0.6156999999999999,eV/atom,
UPS,0,eV/atom,
Ho$_{2}$Al$_{3}$Si$_{2}$,0.0,eV/atom,
Ge$_{2}$Mo,0.0,eV/atom,
SmBi$_{2}$Au,0.0,eV/atom,
BeSO$_{8}$,0.0,eV/atom,[Be+2].O=S(=O)([O-])[O-].O.O.O.O
YBiPd,0.0,eV/atom,
CeGa$_{4}$Os,0.0,eV/atom,
LiY(MoO$_{4}$)$_{2}$,3.3563,eV/atom,
Ti$_{2}$InFe,0.0,eV/atom,
Dy$_{3}$Al$_{2}$,0.0,eV/atom,
KH$_{3}$F$_{4}$,7.363700000000001,eV/atom,
PrSbPd,0.0,eV/atom,
TbPt,0.0,eV/atom,
K$_{8}$Ti$_{5}$P$_{2}$(O$_{4}$F$_{11}$)$_{2}$,3.1144,eV/atom,
CrH,0.0,eV/atom,
KB$_{5}$O$_{8}$,4.1303,eV/atom,
Li$_{2}$BPd$_{3}$,0.0,eV/atom,
Y$_{4}$C$_{7}$,0.0,eV/atom,
FeH$_{3}$,0.0,eV/atom,
BH$_{3}$,5.3233999999999995,eV/atom,
GdCo$_{4}$B,0,eV/atom,
K$_{3}$Na(SO$_{4}$)$_{2}$,5.2921000000000005,eV/atom,
PrPd$_{3}$,0.0,eV/atom,
USb,0.0,eV/atom,
Cs$_{2}$GeSe$_{4}$,1.6991999999999998,eV/atom,
TaAlNi$_{2}$,0.0,eV/atom,
NaAsSe$_{2}$,1.2044000000000001,eV/atom,
USO,0.0,eV/atom,
TaPO$_{5}$,4.0122,eV/atom,
K$_{5}$YCo$_{2}$(NO$_{2}$)$_{12}$,0.0,eV/atom,
LiAlSi,0.11209999999999987,eV/atom,
VSe,0.0,eV/atom,
RbCuO,1.1566000000000003,eV/atom,
Mn$_{3}$CuN,0.0,eV/atom,
Mg(PO$_{3}$)$_{2}$,5.5284,eV/atom,
H$_{12}$PbC$_{4}$S$_{4}$(NO$_{4}$)$_{2}$,4.624499999999999,eV/atom,[Pb+2].O=S(=O)([N-]S(=O)(=O)C)C.O=S(=O)([N-]S(=O)(=O)C)C
U(Ni$_{2}$P)$_{2}$,0.0,eV/atom,
ScAuO$_{2}$,1.7632999999999996,eV/atom,
Zr(Ni$_{2}$P)$_{2}$,0.0,eV/atom,
MnAl$_{6}$,0.0,eV/atom,
CsYbS$_{2}$,0.0,eV/atom,
Ca$_{2}$Co$_{12}$P$_{7}$,0.0,eV/atom,
VS$_{2}$N$_{3}$Cl$_{2}$,0.8077000000000001,eV/atom,
TaCu$_{3}$S$_{4}$,1.9231000000000003,eV/atom,
Co$_{6}$Te$_{5}$O$_{16}$,2.1733,eV/atom,
BN,0.0,eV/atom,
Mg$_{3}$Hg,0.0,eV/atom,
K$_{2}$Ag$_{2}$GeS$_{4}$,1.4068000000000003,eV/atom,
Fe(SiP)$_{4}$,1.0232999999999999,eV/atom,
Ti$_{2}$SCl$_{12}$,1.9342,eV/atom,
HfBe$_{5}$,0.0,eV/atom,
ZrBrN,1.6957999999999998,eV/atom,
ErCu$_{4}$Pd,0.0,eV/atom,
Ba$_{2}$CaIrO$_{6}$,0.0,eV/atom,
ZnH$_{2}$SO$_{5}$,4.2653,eV/atom,
LiV(GeO$_{3}$)$_{2}$,2.0332000000000003,eV/atom,
CaNCl$_{3}$,1.4512,eV/atom,
ThSb,0.0,eV/atom,
Ce(AlZn)$_{2}$,0.0,eV/atom,
LaSb(SBr)$_{2}$,2.1022000000000003,eV/atom,
Yb$_{2}$Co$_{12}$P$_{7}$,0.0,eV/atom,
Pr$_{3}$(Al$_{2}$Si$_{3}$)$_{2}$,0.0,eV/atom,
MgH$_{12}$(BrO$_{6}$)$_{2}$,4.9018,eV/atom,
USnPt,0.0,eV/atom,
Eu(AlSi)$_{2}$,0.0,eV/atom,
Ti$_{8}$O$_{15}$,0.0,eV/atom,
K$_{5}$GaSe$_{4}$,1.9817,eV/atom,
Lu$_{4}$Ge$_{6}$Rh$_{7}$,0.13680000000000003,eV/atom,
NiB$_{12}$,0.0,eV/atom,
NaH$_{2}$Pd$_{3}$,0.0,eV/atom,
S$_{4}$IN$_{3}$Cl$_{2}$,1.6235,eV/atom,
Mg(AlH$_{4}$)$_{2}$,4.3135,eV/atom,
La$_{10}$Si$_{8}$O$_{3}$,0.0,eV/atom,
Np$_{3}$Sn,0.0,eV/atom,
ZnS,2.0205,eV/atom,
KSmS$_{2}$,2.2759,eV/atom,
Sr(AsPt)$_{2}$,0.0,eV/atom,
Cs$_{2}$Re$_{2}$S$_{5}$,0.8111000000000002,eV/atom,
Ba$_{2}$B$_{10}$O$_{17}$,5.6719,eV/atom,
CdI$_{2}$,2.4084000000000003,eV/atom,
V$_{2}$Te$_{2}$O$_{9}$,2.2207,eV/atom,
BaPbO$_{3}$,0.026599999999999735,eV/atom,
TmTc$_{2}$,0.0,eV/atom,
CsBe$_{4}$Al$_{4}$(B$_{3}$O$_{7}$)$_{4}$,0.06400000000000006,eV/atom,
RbIn(WO$_{4}$)$_{2}$,4.6388,eV/atom,
TlAuCl$_{4}$,1.7616999999999998,eV/atom,
Tb$_{3}$Ni,0.0,eV/atom,
Pr$_{5}$Ga$_{3}$,0.0,eV/atom,
LaHoO$_{3}$,4.3854999999999995,eV/atom,
SiO$_{2}$,5.6495,eV/atom,
Mn$_{2}$FeReO$_{6}$,0.0,eV/atom,
Sm$_{2}$SeO$_{2}$,2.1358,eV/atom,
KNa(BH$_{4}$)$_{2}$,6.1615,eV/atom,
UBi,0.0,eV/atom,
Rb$_{2}$Na$_{4}$Co$_{2}$O$_{5}$,1.2621,eV/atom,
Cs$_{2}$MoSe$_{4}$,1.3568,eV/atom,
Na$_{2}$Nb$_{4}$O$_{11}$,2.6498,eV/atom,
SbS$_{2}$NF$_{6}$,2.6675,eV/atom,F[Sb-](F)(F)(F)(F)F.S=[N+]=S
CaN$_{6}$,3.5448999999999997,eV/atom,
S$_{4}$N$_{5}$Cl,2.1844,eV/atom,
SrMgGe,0.026900000000000368,eV/atom,
Mg$_{3}$In,0.0,eV/atom,
Rb$_{5}$Ta(TlAs$_{2}$)$_{2}$,1.4405000000000001,eV/atom,
ZrSn$_{2}$,0.0,eV/atom,
SiO$_{2}$,5.7383999999999995,eV/atom,
Zr$_{2}$In$_{5}$Ni,0.0,eV/atom,
Sr$_{2}$CaMoO$_{6}$,2.5544999999999995,eV/atom,
Zr$_{6}$CI$_{14}$,0.7934999999999999,eV/atom,
Ce(TeO$_{3}$)$_{2}$,1.3596999999999997,eV/atom,
Eu(Ag$_{2}$Sb)$_{2}$,0.0,eV/atom,
Nb(SCl)$_{2}$,1.5101999999999998,eV/atom,
GaMo$_{3}$,0.0,eV/atom,
MnPd$_{2}$,0.0,eV/atom,
ErCuSi,0.0,eV/atom,
TmCoO$_{3}$,0.07139999999999969,eV/atom,
C,1.1046999999999998,eV/atom,
Tl$_{2}$SnO$_{3}$,1.1414,eV/atom,
TaP$_{2}$S$_{2}$Cl$_{5}$,2.3395,eV/atom,
EuIn$_{4}$Ni,0.0,eV/atom,
Sr$_{2}$Mn$_{3}$(BiO)$_{2}$,0.0,eV/atom,
Ni$_{2}$P$_{4}$C$_{11}$S$_{2}$(OF$_{8}$)$_{3}$,2.5554,eV/atom,
LiYSe$_{2}$,1.5238999999999998,eV/atom,
SrLiBi,0.5558000000000001,eV/atom,
TiCuSn,0.0,eV/atom,
CaV$_{2}$CoO$_{7}$,2.0284,eV/atom,
Ni$_{3}$(BiSe)$_{2}$,0.0,eV/atom,
GdAs$_{2}$Pd$_{3}$,0.0,eV/atom,
Rb$_{2}$NiH$_{8}$(CO$_{5}$)$_{2}$,2.95,eV/atom,
Na$_{3}$TiCl$_{6}$,0.07489999999999997,eV/atom,
Mg$_{5}$Ga$_{2}$,0.0,eV/atom,
FeCuS$_{2}$,0.0,eV/atom,
ZnSnAs$_{2}$,0.008700000000000152,eV/atom,
RbAuC$_{2}$,2.1978999999999997,eV/atom,
Ag$_{2}$BiO$_{3}$,0.3843000000000001,eV/atom,
Pr$_{10}$S$_{14}$O,1.8415000000000004,eV/atom,
YNiBC,0.0,eV/atom,
TmAl$_{4}$Ni,0.0,eV/atom,
Sr$_{10}$Al$_{4}$Si$_{6}$O,0.0,eV/atom,
Sr$_{7}$(H$_{6}$Br)$_{2}$,3.7046,eV/atom,
Ti$_{3}$Pd,0.0,eV/atom,
Ce$_{3}$AgGeS$_{7}$,0.0,eV/atom,
Fe$_{3}$C$_{10}$SeO$_{10}$,2.3216,eV/atom,