formula,Property band_gap,Property band_gap units,Property SMILES
VCo$_{2}$Sn,0.0,eV/atom,
Na$_{2}$ZnP(H$_{5}$O$_{4}$)$_{3}$,4.1654,eV/atom,[Na+].[Na+].[Zn+2].[OH-].O=P([O-])([O-])[O-].O.O.O.O.O.O.O
Rb$_{2}$SiF$_{6}$,6.991199999999999,eV/atom,
Na$_{3}$Cl,0.0,eV/atom,
CeB$_{4}$,0.0,eV/atom,
CaHf$_{4}$O$_{9}$,4.4454,eV/atom,
GaTe,0.7804000000000002,eV/atom,
Ba$_{4}$Sb$_{4}$Se$_{11}$,1.1995999999999998,eV/atom,
KMnTe$_{2}$,0.0,eV/atom,
Ni(XeF$_{8}$)$_{2}$,0.5866000000000002,eV/atom,
Nd(FeB)$_{4}$,0.0,eV/atom,
Ba$_{2}$UCu$_{2}$Se$_{5}$,0.0,eV/atom,
CaYbInSe$_{4}$,0.0,eV/atom,
V$_{2}$NiSe$_{4}$,0.0,eV/atom,
NaMgH$_{4}$SO$_{6}$F,5.0653999999999995,eV/atom,
NpAsS,0.0,eV/atom,
Ce(SbPd)$_{2}$,0.0,eV/atom,
ThFe$_{2}$,0.0,eV/atom,
K$_{5}$NaP$_{3}$(HO$_{4}$)$_{3}$,4.6396999999999995,eV/atom,
Ni(RhS$_{2}$)$_{2}$,0.0,eV/atom,
KH$_{2}$SeNO$_{3}$,3.6477000000000004,eV/atom,
MnGeO$_{3}$,1.1025,eV/atom,
Na$_{2}$GeH$_{12}$S$_{2}$O$_{7}$,3.0947,eV/atom,
LiAl(GeO$_{3}$)$_{2}$,3.3829999999999996,eV/atom,
TiAs$_{2}$O$_{7}$,2.7038,eV/atom,
SbCNCl$_{4}$O,2.1439,eV/atom,
XeF$_{4}$,2.8225,eV/atom,F[Xe](F)(F)F
KHgAs,0.0,eV/atom,
U$_{3}$TiSb$_{5}$,0.0,eV/atom,
TmAlGe,0.0,eV/atom,
Ce$_{2}$Te$_{5}$,0.0,eV/atom,
SmSi$_{3}$Ni,0.0,eV/atom,
Sm(Mo$_{3}$S$_{4}$)$_{2}$,0.0,eV/atom,
Ca$_{4}$MgB$_{4}$H$_{6}$(CO$_{9}$)$_{2}$,4.2989,eV/atom,
TbSb,0.0,eV/atom,
La$_{3}$TaO$_{7}$,3.5313,eV/atom,
CsBr$_{2}$F,1.7459000000000002,eV/atom,
BaPd$_{2}$,0.0,eV/atom,
B$_{6}$H$_{10}$C$_{2}$SBr,4.5166,eV/atom,
Bi$_{3}$NF$_{6}$,2.771,eV/atom,
Zr$_{2}$TaN$_{3}$,0.0,eV/atom,
AlPt$_{3}$C,0.0,eV/atom,
Sr(GeAu)$_{2}$,0.0,eV/atom,
C$_{15}$S$_{4}$,1.5051999999999999,eV/atom,[C].[C].[C].[C].[C].[C].[C].[C].[C].[C].[C].[C].[C].[C].[C].[C].[C].[C].[C].[C].[C].[C].[C].[C].[C].[C].[C].[C].[C].[C].[C].[C].[C].[C].[C].[C].[C].[C].[C].[C].[C].[C].[C].[C].[C].[C].[C].[C].[C].[C].[C].[C].[C].[C].[C].[C].[C].[C].[C].[C].[S].[S].[S].[S].[S].[S].[S].[S].[S].[S].[S].[S].[S].[S].[S].[S]
YbHgPb,0.0,eV/atom,
Sm$_{3}$(SiIr)$_{2}$,0.0,eV/atom,
CeInPd,0.0,eV/atom,
KUCrO$_{6}$,1.6241,eV/atom,
LaBi$_{2}$Au,0.0,eV/atom,
CePb$_{3}$,0.0,eV/atom,
UTe$_{3}$,0.0,eV/atom,
YbSi$_{2}$,0.0,eV/atom,
LaTeCl,0.6562999999999999,eV/atom,
Ho$_{4}$CdRh,0.0,eV/atom,
Ce$_{2}$S$_{3}$,0.0,eV/atom,
Be$_{3}$Nb,0.06359999999999921,eV/atom,
SmH$_{8}$(NO$_{5}$)$_{3}$,0.4676000000000001,eV/atom,
K$_{2}$MnSnSe$_{4}$,0.2896000000000001,eV/atom,
Ta$_{8}$NiSe$_{8}$,0.0,eV/atom,
KSbN(OF)$_{3}$,3.2613000000000003,eV/atom,
LiAsSe$_{2}$,0.8416999999999999,eV/atom,
Na$_{2}$ZnGe$_{2}$(HO$_{2}$)$_{4}$,3.2182,eV/atom,
Pr$_{3}$SiSe$_{2}$N$_{3}$,2.0836,eV/atom,
HoRh$_{3}$C,0.0,eV/atom,
NaZn$_{13}$,0.0,eV/atom,
NaCrO$_{2}$,2.8907,eV/atom,
Sr$_{4}$Mn$_{2}$Cu$_{3}$(SO)$_{4}$,0.0,eV/atom,
ZrInCu$_{2}$,0.0,eV/atom,
As$_{2}$Pt,0.0801999999999996,eV/atom,
H$_{2}$S,4.3246,eV/atom,
Fe$_{4}$As$_{10}$PbO$_{22}$,1.7469,eV/atom,
Ga$_{2}$O$_{3}$,2.4019000000000004,eV/atom,
Rb$_{2}$W$_{2}$O$_{7}$,2.423,eV/atom,
ZrCl$_{4}$,3.6105,eV/atom,
PtN,0.0,eV/atom,
Cs$_{3}$NiF$_{7}$,0.7702,eV/atom,
CsI,3.8571999999999997,eV/atom,
K$_{2}$Ca$_{2}$(SO$_{4}$)$_{3}$,5.5099,eV/atom,
Tb$_{6}$CoTe$_{2}$,0.0,eV/atom,
Tl$_{8}$Sb$_{21}$As$_{19}$(PbS$_{17}$)$_{4}$,1.4184,eV/atom,
Ba(ZnSi)$_{2}$,0.0,eV/atom,
CuH$_{10}$C$_{2}$(NO)$_{8}$,0.8346000000000001,eV/atom,
Mo$_{12}$PH$_{24}$C$_{6}$N$_{3}$O$_{40}$,2.3291,eV/atom,
CeCuSe$_{2}$,0.0,eV/atom,
AlH$_{12}$(ClO$_{2}$)$_{3}$,5.1391,eV/atom,Cl[Al](Cl)Cl.O.O.O.O.O.O
Rb$_{3}$Sn$_{4}$Au,0.5795000000000003,eV/atom,
Pd$_{3}$Pb,0.0,eV/atom,
SrAl$_{2}$P$_{2}$(O$_{4}$F)$_{2}$,5.4887,eV/atom,
La$_{5}$Pb$_{3}$,0.0,eV/atom,
Rb$_{2}$SbCl$_{3}$F$_{2}$,3.0561,eV/atom,
Sn$_{2}$Rh$_{3}$S$_{2}$,0.0,eV/atom,
GeF$_{2}$,4.1959,eV/atom,
Yb(As$_{2}$Rh$_{3}$)$_{2}$,0.0907,eV/atom,
Ca$_{4}$PdO$_{6}$,1.8226999999999998,eV/atom,
Pr(FeSi)$_{2}$,0.0,eV/atom,
EuGaPt,0.0,eV/atom,
BH(PbO$_{2}$)$_{2}$,3.1768,eV/atom,
CaZn$_{3}$Ni$_{2}$,0.0,eV/atom,
Ba$_{2}$Ti$_{13}$O$_{22}$,0.0,eV/atom,
BaAlSi$_{4}$N$_{5}$O$_{3}$,3.2180999999999997,eV/atom,
Ca$_{3}$Ga$_{2}$(SiO$_{4}$)$_{3}$,4.2496,eV/atom,
InBr,1.2574999999999998,eV/atom,
Er$_{5}$Zr$_{3}$(Ni$_{4}$As$_{3}$)$_{4}$,0.0,eV/atom,
VSeO$_{4}$,1.8885999999999998,eV/atom,
Er$_{12}$Co$_{7}$,0.0,eV/atom,
CaAl$_{12}$O$_{19}$,4.319500000000001,eV/atom,
In$_{3}$Te$_{3}$I,1.1004,eV/atom,
H$_{10}$SeO$_{8}$,3.9706,eV/atom,O=[Se](=O)(O)O.O.O.O.O
Nd$_{2}$Ni$_{7}$P$_{4}$,0.0,eV/atom,
Nd$_{7}$Ni$_{3}$,0.0,eV/atom,
Nd$_{2}$S$_{3}$,0.7595999999999998,eV/atom,
H$_{9}$PbC$_{3}$I,3.053,eV/atom,I[Pb](C)(C)C
Te$_{2}$Mo,0.0,eV/atom,
NaLiCO$_{3}$,4.502199999999999,eV/atom,
TiSCl$_{6}$O,2.6221,eV/atom,
BaAg$_{2}$,0.0,eV/atom,
K$_{3}$(Cu$_{4}$S$_{3}$)$_{2}$,0.004399999999999515,eV/atom,
LaMg$_{4}$Cu,0.0,eV/atom,
Sr$_{3}$Li$_{2}$,0.0,eV/atom,
RbAuO$_{2}$,1.4611,eV/atom,
Fe$_{8}$N,0.0,eV/atom,
ZnCu$_{2}$SnS$_{4}$,0.08729999999999993,eV/atom,
Ba(Sb$_{3}$Os)$_{4}$,0.0,eV/atom,
Sr$_{11}$In$_{7}$,0.0,eV/atom,
H$_{8}$RuC$_{5}$N(ClO)$_{3}$,3.3049999999999997,eV/atom,
S,2.4187,eV/atom,
SbH$_{3}$CS$_{2}$N,0.7138000000000002,eV/atom,
K$_{2}$Si(S$_{2}$O$_{7}$)$_{3}$,5.2762,eV/atom,
Mn$_{13}$Al$_{4}$Si$_{2}$(SbO$_{14}$)$_{2}$,1.4192,eV/atom,
K$_{2}$NiAs$_{2}$,0.08009999999999984,eV/atom,
CsHg$_{5}$Cl$_{11}$,2.6909,eV/atom,
BeH$_{4}$NF$_{3}$,6.1675,eV/atom,
SrCoAs$_{2}$O$_{7}$,2.5917,eV/atom,
H$_{2}$S,4.0299,eV/atom,
PRu$_{4}$C$_{15}$O$_{14}$F$_{3}$,2.0336,eV/atom,
ZnAg$_{2}$C$_{4}$(SN)$_{4}$,3.0002999999999997,eV/atom,
K$_{2}$Pt(CN)$_{4}$,2.1357,eV/atom,
K$_{3}$NpO$_{2}$F$_{5}$,0.2862000000000001,eV/atom,
NaHfCuSe$_{3}$,0.38450000000000006,eV/atom,
Pm$_{2}$O$_{3}$,3.8668,eV/atom,
YH$_{3}$,0.0405000000000002,eV/atom,
SnP$_{2}$Cl$_{8}$O$_{3}$,3.0965,eV/atom,
GdCoC,0.03310000000000013,eV/atom,
Ce$_{2}$CrN$_{3}$,0.0,eV/atom,
Sr(AsRh)$_{2}$,0.0,eV/atom,
K$_{2}$Zr(SiO$_{3}$)$_{3}$,4.8118,eV/atom,
CeSnRh,0.0,eV/atom,
SiBr$_{2}$,2.6702,eV/atom,
Eu(Cu$_{2}$Sn)$_{2}$,0.0,eV/atom,
ScSe,0.0,eV/atom,
CS$_{2}$(NCl)$_{3}$,2.6841,eV/atom,ClC1=NS(Cl)NS(Cl)N1
CuClF$_{10}$,0.024700000000000166,eV/atom,
Rb$_{2}$NaVF$_{6}$,0.0,eV/atom,
K$_{2}$EuTa$_{5}$O$_{15}$,0.0,eV/atom,
Ga$_{2}$Ge$_{4}$Pb$_{3}$O$_{14}$,2.166,eV/atom,
SbCSF$_{11}$,4.4303,eV/atom,F[S+](F)C(F)(F)F.F[Sb-](F)(F)(F)(F)F
NdBPt$_{2}$,0.0,eV/atom,
Sm(MgBi)$_{2}$,0.0,eV/atom,
SrAu,0.0,eV/atom,
K$_{6}$Si$_{2}$S$_{6}$O,3.1497,eV/atom,
Li$_{2}$MnO$_{3}$,1.8623999999999998,eV/atom,
LiEr$_{2}$S$_{2}$O$_{8}$F$_{3}$,6.0868,eV/atom,
Tl$_{2}$O,0.5194000000000001,eV/atom,
FeNi$_{2}$BO$_{5}$,1.8488000000000002,eV/atom,
TeO$_{2}$,2.2279000000000004,eV/atom,
ZrRu$_{3}$,0.0,eV/atom,
SnP$_{3}$,0.0,eV/atom,
Mg$_{2}$NiH$_{4}$,1.5718999999999999,eV/atom,
LaNbTeO$_{6}$,3.2977999999999996,eV/atom,
Ba(BIr)$_{2}$,0.0,eV/atom,
KClO$_{3}$,5.0728,eV/atom,
VGaFe$_{2}$,0.0,eV/atom,
TlAgS,0.0,eV/atom,
Th$_{2}$Hg,0.0,eV/atom,
Na$_{5}$Lu(WO$_{4}$)$_{4}$,4.658,eV/atom,
Fe$_{6}$Ge$_{2}$(CO)$_{23}$,2.1941,eV/atom,
Dy$_{3}$Fe$_{2}$Si$_{3}$,0.0,eV/atom,
TiN,0.0,eV/atom,
U$_{4}$Ga$_{12}$Rh,0.0,eV/atom,
NaYPO$_{4}$F,5.4899000000000004,eV/atom,
CuI,1.1363000000000003,eV/atom,
K$_{2}$CaNi(NO$_{2}$)$_{6}$,2.0544000000000002,eV/atom,
Rb$_{2}$NaAl$_{3}$F$_{12}$,7.1465,eV/atom,
TbMg$_{3}$,0.0,eV/atom,
Rb$_{2}$MnSO$_{4}$F$_{3}$,1.7343000000000002,eV/atom,
TlAgTe,0.6385000000000005,eV/atom,
Y$_{3}$Si$_{3}$Pd$_{2}$,0.0,eV/atom,
Rb$_{2}$S$_{5}$,1.9539000000000002,eV/atom,
HoMn$_{2}$,0.0,eV/atom,
FeAgO$_{2}$,1.1341,eV/atom,
Ba$_{8}$Re$_{2}$(WO$_{8}$)$_{3}$,0.026799999999999713,eV/atom,
BaEr$_{2}$F$_{8}$,7.215,eV/atom,
AsF$_{5}$,4.6002,eV/atom,
Tb$_{3}$ReB$_{7}$,0.0,eV/atom,
CaAs$_{2}$(XeF$_{5}$)$_{4}$,2.5746999999999995,eV/atom,
BaNa$_{2}$Al$_{4}$(SiO$_{4}$)$_{4}$,4.7346,eV/atom,
KCuO,1.2469000000000001,eV/atom,
OF$_{2}$,2.0408999999999997,eV/atom,FOF
Na$_{3}$CrH$_{10}$C$_{6}$O$_{17}$,3.2158,eV/atom,
K$_{2}$Se$_{5}$,0.9322999999999999,eV/atom,
CaFe$_{2}$P$_{3}$HO$_{12}$,1.8441000000000005,eV/atom,
Rb$_{6}$U$_{2}$Mo$_{4}$O$_{21}$,2.1909,eV/atom,
UInRh,0.0,eV/atom,
TlCdI$_{3}$,2.1764,eV/atom,
Al$_{3}$(Ni$_{10}$B$_{3}$)$_{2}$,0.0,eV/atom,
H$_{5}$N$_{2}$ClO$_{4}$,5.449800000000001,eV/atom,
AlSi$_{2}$HC$_{6}$NCl$_{3}$,0.7549999999999999,eV/atom,Cl[Al](Cl)Cl.N([Si](C)(C)C)[Si](C)(C)C
EuH$_{2}$,0.3647,eV/atom,
EuGeS$_{3}$,0.19559999999999977,eV/atom,
TaFeP,0.0,eV/atom,
Eu$_{3}$OsO$_{7}$,0.0,eV/atom,
CuTe$_{2}$,0.0,eV/atom,
Tm$_{7}$Cl$_{15}$,0.08089999999999975,eV/atom,
Tm$_{2}$S$_{3}$,2.2738000000000005,eV/atom,
Li$_{3}$AlN$_{2}$,2.9371,eV/atom,
FeS$_{4}$N$_{4}$Cl$_{3}$,0.8885000000000001,eV/atom,
K$_{2}$TcI$_{6}$,0.20120000000000005,eV/atom,
Ti$_{3}$TlN,0.0,eV/atom,
CrO$_{2}$,0.09859999999999935,eV/atom,
Er$_{3}$Ni$_{7}$B$_{2}$,0.0,eV/atom,
MoCl$_{2}$O$_{3}$,0.5524,eV/atom,
Er$_{3}$Ga$_{5}$O$_{12}$,3.3298000000000005,eV/atom,
Rb$_{2}$Mo$_{3}$SO$_{13}$,2.8554,eV/atom,
U$_{3}$Sb$_{4}$Rh$_{3}$,0.0,eV/atom,
Dy$_{2}$Pd$_{2}$Pb,0.0,eV/atom,
ThB$_{4}$W,0.0,eV/atom,
Tl$_{3}$SbS$_{3}$,1.592,eV/atom,
Nd$_{2}$Ti$_{3}$(ClO$_{4}$)$_{2}$,2.9455,eV/atom,
Be$_{3}$Al$_{2}$(SiO$_{3}$)$_{6}$,5.319500000000001,eV/atom,
CeAl$_{2}$Pt$_{3}$,0.0,eV/atom,
SmMoClO$_{4}$,2.8195,eV/atom,
Cs$_{11}$O$_{3}$,0.0,eV/atom,
ZnGeP$_{2}$,1.1667,eV/atom,
Zr$_{5}$Si$_{3}$,0.0,eV/atom,
Cu$_{11}$Sb$_{3}$,0.0,eV/atom,
Na$_{7}$Al$_{4}$P$_{9}$O$_{32}$,4.7512,eV/atom,
NaGaH$_{8}$(NF$_{3}$)$_{2}$,5.8536,eV/atom,
KP(HO$_{2}$)$_{2}$,5.6046,eV/atom,
NaLiTe,2.2840000000000003,eV/atom,
Zr$_{3}$(Al$_{2}$C$_{3}$)$_{2}$,0.0,eV/atom,
Nb$_{2}$Cr$_{4}$Si$_{5}$,0.0,eV/atom,
Sr$_{2}$Co(BrO)$_{2}$,0.6307,eV/atom,
CsCu$_{3}$O$_{2}$,1.4572,eV/atom,
ThGeO$_{4}$,3.8957,eV/atom,
Nb$_{4}$CoS$_{8}$,0.0,eV/atom,
La$_{3}$Br$_{6}$N,3.0574999999999997,eV/atom,
Sr$_{2}$ZnWO$_{6}$,3.5287999999999995,eV/atom,
PrZnGa,0.0,eV/atom,
KPO$_{3}$,4.9935,eV/atom,
Ag$_{2}$Mo$_{2}$O$_{7}$,1.9011000000000002,eV/atom,
K$_{2}$Pb(SO$_{4}$)$_{2}$,4.436299999999999,eV/atom,
ReTeSeCl$_{4}$,2.3069,eV/atom,
GdGaGe$_{2}$O$_{7}$,2.8223,eV/atom,
LaPPt,0.0,eV/atom,
MgSiO$_{3}$,5.0422,eV/atom,
Sm(NiGe)$_{2}$,0.0,eV/atom,
LaSn$_{3}$,0.0,eV/atom,
HoSi$_{3}$Ir,0.0,eV/atom,
Mn$_{3}$V$_{6}$(FeO$_{6}$)$_{4}$,1.4562000000000002,eV/atom,
Rb$_{3}$SbSe$_{4}$,1.3317,eV/atom,
CoO,0.7120000000000002,eV/atom,
Tb$_{3}$InC,0.0,eV/atom,
TbOF,4.9318,eV/atom,
GdGePt,0.0,eV/atom,
La$_{23}$Mg$_{4}$Ni$_{7}$,0.0,eV/atom,
Nd$_{3}$S$_{4}$,0.0,eV/atom,
DyIn$_{5}$Co,0.0,eV/atom,
CdSO$_{4}$,0.8038,eV/atom,
Ca$_{2}$Hf$_{7}$O$_{16}$,4.3157000000000005,eV/atom,
BaCeO$_{3}$,2.2279,eV/atom,
Ce$_{4}$In$_{8}$Ni$_{7}$,0.0,eV/atom,
Mn$_{3}$B$_{7}$ClO$_{13}$,4.2082999999999995,eV/atom,
NaAs$_{3}$H$_{2}$O$_{9}$,2.6272,eV/atom,
KYb$_{3}$F$_{10}$,0.0,eV/atom,
Cs$_{2}$SeO$_{4}$,3.8005999999999998,eV/atom,
HoAu$_{3}$,0.0,eV/atom,
Na$_{4}$Si$_{3}$(SnO$_{6}$)$_{2}$,3.0661000000000005,eV/atom,
Li$_{5}$Ca$_{7}$Sn$_{11}$,0.0,eV/atom,
Cs$_{2}$KRhF$_{6}$,2.1034,eV/atom,
TiGaFeCo,0.0,eV/atom,
LaMg$_{2}$H$_{7}$,2.6058999999999997,eV/atom,
KGdP$_{2}$H$_{4}$O$_{9}$,3.2754000000000003,eV/atom,
Ba$_{21}$Si$_{2}$O$_{5}$,0.0,eV/atom,
PuO,0.0,eV/atom,
ZrSiRu,0.0,eV/atom,
Fe(BW)$_{2}$,0.0,eV/atom,
Fe$_{2}$Cu$_{2}$Ge$_{4}$O$_{13}$,0.2979000000000003,eV/atom,
SrAl$_{4}$O$_{7}$,3.2333000000000003,eV/atom,
Rb$_{2}$Na$_{3}$InO$_{4}$,2.1593,eV/atom,
GaRh,0.0,eV/atom,
GdAlO$_{3}$,3.2382,eV/atom,
CeAgSn,0.0,eV/atom,
Ca$_{2}$Ta$_{2}$O$_{7}$,3.4624,eV/atom,
Sr$_{3}$ErRhO$_{6}$,2.192,eV/atom,
Na$_{4}$TiSe$_{4}$,1.6704,eV/atom,
NpAl$_{2}$,0.0,eV/atom,
Na$_{4}$Ga$_{3}$Si$_{3}$BrO$_{12}$,4.0513,eV/atom,
Cs$_{5}$Sb$_{8}$,0.5847000000000002,eV/atom,
Mg$_{3}$Sb$_{2}$,0.21720000000000006,eV/atom,
CsSnCl$_{3}$,0.9786999999999999,eV/atom,
ZnPt$_{3}$,0.0,eV/atom,
CIF$_{7}$,4.6791,eV/atom,
RbMnVO$_{4}$,2.7323,eV/atom,
V$_{5}$Si$_{3}$,0.0,eV/atom,
CaV$_{2}$(PO$_{5}$)$_{2}$,1.9083,eV/atom,
Sr$_{2}$Mg$_{17}$,0.0,eV/atom,
LiFePO$_{4}$,3.9223999999999997,eV/atom,
Ca$_{6}$Ag$_{16}$N,0.0,eV/atom,
ZrIr$_{3}$,0.0,eV/atom,
Cs$_{2}$TlBiF$_{6}$,3.0672999999999995,eV/atom,
CuH$_{12}$N$_{2}$(Cl$_{2}$O)$_{2}$,0.5328999999999999,eV/atom,
Np$_{3}$Te$_{4}$,0.0,eV/atom,
Ca$_{2}$FeP$_{2}$(H$_{2}$O$_{3}$)$_{4}$,4.325100000000001,eV/atom,
Li$_{2}$Mo$_{4}$O$_{13}$,2.447,eV/atom,
CdHg$_{4}$C$_{6}$S$_{6}$(Br$_{2}$N$_{3}$)$_{2}$,1.866,eV/atom,
EuZnAu,0.0,eV/atom,
CaIn$_{4}$Ir,0.0,eV/atom,
P$_{2}$WO$_{8}$,2.5303999999999998,eV/atom,
Ca$_{3}$AuN,0.0,eV/atom,
Fe$_{7}$(AsO$_{4}$)$_{6}$,1.5249,eV/atom,
VBi(PbO$_{3}$)$_{2}$,2.4006,eV/atom,
SbP$_{2}$O$_{7}$,2.2392999999999996,eV/atom,
MgPbF$_{6}$,3.0406,eV/atom,
Zr$_{2}$Ga,0.0,eV/atom,
ZnCd$_{3}$S$_{4}$,1.2146000000000001,eV/atom,
Na$_{2}$PS$_{3}$,2.7385,eV/atom,
AgBiTe$_{2}$,0.13320000000000043,eV/atom,
Ti$_{2}$MnO$_{4}$,0.0,eV/atom,
PrH$_{20}$S$_{4}$N$_{5}$O$_{16}$,5.2026,eV/atom,
CeVO$_{4}$,0.0,eV/atom,
CeTi$_{2}$O$_{6}$,1.5329000000000002,eV/atom,
K$_{2}$VAgS$_{4}$,1.3452,eV/atom,
NiBi$_{3}$,0.0,eV/atom,
PH$_{5}$(NO$_{2}$)$_{2}$,0.0,eV/atom,O=P([O-])(O)O.N[NH3+]
LaB$_{2}$Rh$_{2}$C,0.0,eV/atom,
Ho$_{7}$FeI$_{12}$,0.0,eV/atom,
Nb$_{4}$CrSe$_{8}$,0.0,eV/atom,
HoZnRh,0.0,eV/atom,
Sm$_{2}$Cu$_{4}$Sn$_{5}$,0.0,eV/atom,
Hg$_{3}$(SeCl)$_{2}$,1.7701,eV/atom,
YZnSn$_{2}$,0.0,eV/atom,
Ga$_{2}$Te$_{5}$,0.9569999999999999,eV/atom,
SbIr,0.0,eV/atom,
TbSeClO$_{3}$,4.3781,eV/atom,
CsNa$_{2}$Be$_{6}$(BO$_{3}$)$_{5}$,4.5079,eV/atom,
Ba$_{2}$FeCoF$_{9}$,2.0227,eV/atom,
Cs$_{2}$LiLuCl$_{6}$,5.3389,eV/atom,
YbBRh$_{3}$,0.0,eV/atom,
NdCuS$_{2}$,1.0786999999999995,eV/atom,
Zr$_{4}$CoP,0.0,eV/atom,
KAsO$_{4}$,0.8765,eV/atom,
VIr,0.0,eV/atom,
La$_{6}$B(NO$_{2}$)$_{3}$,1.0963000000000003,eV/atom,
Bi(Mo$_{3}$S$_{4}$)$_{2}$,0.0,eV/atom,
Y$_{4}$InIr,0.0,eV/atom,
Cs$_{2}$MgH$_{12}$(SeO$_{7}$)$_{2}$,4.1266,eV/atom,
ThI$_{4}$,1.8296999999999999,eV/atom,
K$_{2}$CoF$_{4}$,0.0,eV/atom,
GdZn$_{2}$,0.0,eV/atom,
Na$_{2}$Cu(PO$_{3}$)$_{4}$,0.8701999999999999,eV/atom,
O$_{2}$,1.3309,eV/atom,
Ti$_{2}$MnSi,0.0,eV/atom,
MnH$_{8}$C$_{2}$S$_{2}$(NO$_{2}$)$_{2}$,3.9825,eV/atom,[Mn+2].[N-]=C=S.[N-]=C=S.O.O.O.O
Ho$_{3}$CuSiS$_{7}$,1.8279999999999994,eV/atom,
BaBiAu,0.0,eV/atom,
CSCl$_{2}$,2.9369,eV/atom,
Cr$_{3}$SnN,0.0,eV/atom,
TbAlPt,0.0,eV/atom,
PtCl$_{2}$,1.1359,eV/atom,
Cr$_{2}$Fe,0.0,eV/atom,
KBaPSe$_{4}$,1.2588000000000001,eV/atom,
CsNaSi$_{2}$O$_{5}$,4.4582,eV/atom,
U$_{3}$Cu$_{2}$S$_{7}$,0.0,eV/atom,
K$_{4}$U$_{5}$Te$_{2}$O$_{21}$,1.7541,eV/atom,
InAg(WO$_{4}$)$_{2}$,2.3544,eV/atom,
Ni(CO$_{3}$)$_{2}$,0.0,eV/atom,
RbHgC$_{3}$(SN)$_{3}$,1.9375,eV/atom,
HoB$_{2}$Rh$_{3}$,0.0,eV/atom,
Na$_{2}$SnSe$_{3}$,1.324,eV/atom,
RbBeH$_{3}$,3.3379,eV/atom,
LiUBO$_{5}$,1.9059,eV/atom,
Nd$_{2}$Pt$_{2}$O$_{7}$,1.0872000000000002,eV/atom,
AlInI$_{4}$,3.0259,eV/atom,
RbCdCl$_{3}$,3.5541,eV/atom,
MoP$_{2}$PbO$_{8}$,0.9950000000000001,eV/atom,
UMn$_{2}$,0.0,eV/atom,
Na$_{2}$SbAu,0.36970000000000036,eV/atom,
NaFeO$_{2}$,2.0924,eV/atom,
NaPr$_{2}$RuO$_{6}$,0.4730000000000003,eV/atom,
HS$_{7}$N,2.0186,eV/atom,
TlFe$_{2}$S$_{3}$,0.0,eV/atom,
TiSCl$_{6}$O,2.6524,eV/atom,
SmSi$_{3}$Pt$_{5}$,0.0,eV/atom,
PrZn$_{11}$,0.0,eV/atom,
Ni$_{2}$Sn$_{4}$Au,0.0,eV/atom,
KAuO$_{2}$,1.0739,eV/atom,
SiCl$_{2}$O,5.5476,eV/atom,
CsLuS$_{2}$,2.1704,eV/atom,
ZnAgF$_{3}$,1.589,eV/atom,
Sn$_{5}$(BIr$_{3}$)$_{2}$,0.0,eV/atom,
CsYbCoSe$_{3}$,0.0,eV/atom,
KCr$_{2}$FeO$_{10}$,0.0,eV/atom,
Tl$_{3}$B$_{3}$S$_{10}$,1.8863000000000003,eV/atom,
BaHClO,5.1255999999999995,eV/atom,
Y$_{4}$CoB$_{13}$,0.0,eV/atom,
TiFe$_{2}$As,0.0,eV/atom,
BaLa$_{2}$PdO$_{5}$,2.3334,eV/atom,
LiYF$_{4}$,7.8149999999999995,eV/atom,
Ta$_{9}$(CoS$_{3}$)$_{2}$,0.0,eV/atom,
Lu$_{3}$Al$_{5}$O$_{12}$,5.0364,eV/atom,
Ba$_{4}$Co(ReO$_{6}$)$_{2}$,1.4251,eV/atom,
KNa$_{2}$GaO$_{3}$,2.5055,eV/atom,
NdCu,0.0,eV/atom,
PrTa$_{3}$O$_{9}$,3.1746000000000003,eV/atom,
CsAu(IO$_{3}$)$_{4}$,2.0254000000000003,eV/atom,
BaSnHgS$_{4}$,1.8454,eV/atom,
Sr(ZnGe)$_{2}$,0.0,eV/atom,
Cs$_{4}$Sb$_{14}$S$_{23}$,1.3732999999999995,eV/atom,
TaMnSi,0.0,eV/atom,
Nd$_{4}$Ge$_{7}$,0.0,eV/atom,
ThZr$_{2}$F$_{12}$,5.4973,eV/atom,
SrTl,0.0,eV/atom,
BaNdAgS$_{3}$,1.7466999999999997,eV/atom,
Na$_{2}$In$_{2}$Sb$_{3}$,0.6920999999999999,eV/atom,
Cr$_{12}$P$_{7}$,0.0,eV/atom,
Yb$_{3}$CoSn$_{6}$,0.0,eV/atom,
Na$_{2}$CuH$_{4}$(SO$_{5}$)$_{2}$,0.7692000000000001,eV/atom,
Ba$_{2}$TeP$_{2}$O$_{9}$,3.4201,eV/atom,
Mo$_{3}$Os,0.0,eV/atom,
PrAsSe,0.0,eV/atom,
SrN$_{2}$,0.0,eV/atom,
Zr$_{3}$Cd$_{3}$AgF$_{20}$,0.0,eV/atom,
CuH$_{10}$SO$_{9}$,0.0,eV/atom,
Zn$_{3}$P$_{2}$,0.0,eV/atom,
Ho$_{2}$SeO$_{2}$,2.1517000000000004,eV/atom,
KBi(PSe$_{3}$)$_{2}$,1.7577,eV/atom,
Sr$_{2}$CoWO$_{6}$,1.6379000000000006,eV/atom,
Na$_{2}$DyMoPO$_{8}$,4.1989,eV/atom,
MgZn$_{2}$,0.0,eV/atom,
La(AsPd)$_{2}$,0.0,eV/atom,
Y$_{14}$(InRh)$_{3}$,0.0,eV/atom,
Ba$_{4}$Ti$_{2}$PtO$_{10}$,1.9973,eV/atom,
DySb,0.0,eV/atom,
Ce$_{2}$Mo$_{2}$C$_{3}$,0.0,eV/atom,
Cr$_{2}$(MoO$_{4}$)$_{3}$,2.6785,eV/atom,
RbMnTe$_{2}$,0.0,eV/atom,
ErCdNi$_{4}$,0.0,eV/atom,
SiRu,0.22589999999999932,eV/atom,
Ba$_{3}$FeO$_{5}$,0.0,eV/atom,
CsAuCl$_{3}$,0.8098,eV/atom,
PdF$_{3}$,0.0,eV/atom,
CdI$_{2}$,2.322,eV/atom,
Mg$_{2}$PHO$_{5}$,5.266400000000001,eV/atom,
Cu$_{6}$Sn$_{5}$,0.0,eV/atom,
Er(SiIr)$_{2}$,0.0,eV/atom,
LaCu$_{6}$,0.0,eV/atom,
Zn$_{2}$BIr$_{2}$,0.0,eV/atom,
YbEuSi$_{4}$N$_{7}$,0.04859999999999953,eV/atom,
CdAsPt$_{5}$,0.0,eV/atom,
CuMo$_{3}$Cl$_{7}$,1.9195000000000002,eV/atom,
Tb$_{3}$SiBr$_{3}$,0.0,eV/atom,
BiP$_{3}$Pb$_{4}$O$_{13}$,3.2834,eV/atom,
Sm(SiAu)$_{2}$,0.0,eV/atom,
Pr(NiAs)$_{2}$,0.0,eV/atom,
Sb$_{2}$Pt$_{2}$O$_{7}$,0.5643000000000002,eV/atom,
Mg$_{3}$(PO$_{6}$)$_{2}$,0.0,eV/atom,
Ba$_{2}$VP$_{2}$O$_{11}$,0.13589999999999997,eV/atom,
KNaNdNbO$_{5}$,3.4371,eV/atom,
La$_{2}$Hf$_{2}$O$_{7}$,0.0,eV/atom,
Li$_{9}$S$_{3}$N,2.4272,eV/atom,
Ce$_{2}$In,0.0,eV/atom,
Li$_{6}$PBrO$_{5}$,5.1099000000000006,eV/atom,
BaZnSi,0.0,eV/atom,
GaTeCl,2.1702,eV/atom,
KCdP$_{3}$H$_{8}$O$_{13}$,4.4116,eV/atom,
Pu(CuSi)$_{2}$,0.0,eV/atom,
Y$_{2}$CdS$_{4}$,1.1109000000000002,eV/atom,
MgSiO$_{3}$,4.2238999999999995,eV/atom,
Pr$_{3}$AgGeS$_{7}$,1.8793000000000002,eV/atom,
Tb$_{2}$Se$_{3}$,0.3403999999999998,eV/atom,
BaNi$_{9}$As$_{5}$,0.0,eV/atom,
Ba$_{9}$(AuO$_{6}$)$_{2}$,1.8826999999999998,eV/atom,
TcB$_{4}$,0.0,eV/atom,
PH$_{7}$CN$_{2}$O$_{5}$,5.4212,eV/atom,O=C(N)N.O=P(O)(O)O
InS,0.4394,eV/atom,
ErS$_{2}$,0.0,eV/atom,
CsCrCl$_{3}$,0.14200000000000035,eV/atom,
CaMg(CO$_{3}$)$_{2}$,5.0091,eV/atom,
CaMg$_{2}$N$_{2}$,1.9968999999999997,eV/atom,
Er(CuSi)$_{2}$,0.0,eV/atom,
MgH$_{6}$(BrN)$_{2}$,4.1225,eV/atom,
Na$_{3}$H$_{7}$Os,2.6299,eV/atom,
BrN,0.0,eV/atom,
ErB$_{2}$Ru$_{3}$,0.0,eV/atom,
K$_{2}$SnO$_{3}$,2.1206000000000005,eV/atom,
SrC$_{10}$,0.0,eV/atom,[C].[C].[C].[C].[C].[C].[C].[C].[C].[C].[C].[C].[C].[C].[C].[C].[C].[C].[C].[C].[C].[C].[C].[C].[C].[C].[C].[C].[C].[C].[C].[C].[C].[C].[C].[C].[C].[C].[C].[C].[C].[C].[C].[C].[C].[C].[C].[C].[C].[C].[C].[C].[C].[C].[C].[C].[C].[C].[C].[C].[Sr].[Sr].[Sr].[Sr].[Sr].[Sr]
Na$_{4}$SnS$_{4}$,2.0692,eV/atom,
CoSe$_{2}$O$_{5}$,2.3763,eV/atom,
HoFe$_{4}$(CuO$_{4}$)$_{3}$,0.0,eV/atom,
ScH$_{3}$(CO$_{2}$)$_{3}$,3.4017999999999997,eV/atom,[Sc+3].O=C[O-].O=C[O-].O=C[O-]
YN,0.7004999999999999,eV/atom,
NaLi$_{5}$N$_{2}$,2.6507,eV/atom,
Pu$_{3}$Pb,0.0,eV/atom,
CaPdPb,0.0,eV/atom,
Ca(ClO$_{2}$)$_{2}$,2.5666,eV/atom,
Ge$_{2}$N$_{2}$O,2.6029,eV/atom,
Gd$_{2}$Fe$_{2}$I,0.0,eV/atom,
BN,1.5764,eV/atom,
HoHg$_{2}$,0.0,eV/atom,
KV$_{5}$S$_{8}$,0.0,eV/atom,
MoSeCl$_{7}$O,2.4334,eV/atom,
CsB$_{3}$O$_{5}$,5.304,eV/atom,
NaRhO$_{2}$,1.3773999999999997,eV/atom,
NdS$_{2}$,0.0,eV/atom,
AsPd$_{5}$,0.0,eV/atom,
CsH$_{24}$Ru(SO$_{10}$)$_{2}$,0.604,eV/atom,
TmAlCu,0.0,eV/atom,
NaReO$_{4}$,3.6151999999999997,eV/atom,
PS$_{3}$N$_{5}$F$_{2}$,2.5324,eV/atom,
Ba$_{5}$P$_{3}$BrO$_{12}$,4.963699999999999,eV/atom,
Zr$_{5}$AlPb$_{3}$,0.0,eV/atom,
LiMgBi,0.3618999999999999,eV/atom,
HgAs$_{2}$H$_{2}$F$_{14}$,3.3296,eV/atom,
Li$_{13}$Si$_{4}$,0.0,eV/atom,
CsI$_{2}$Br,1.9762,eV/atom,
ZnNi$_{3}$Sb$_{2}$,0.0,eV/atom,
Na$_{2}$SO$_{4}$,4.9638,eV/atom,
K$_{2}$VH$_{2}$OF$_{5}$,2.2231,eV/atom,
AlH$_{20}$C$_{2}$S$_{2}$NO$_{14}$,5.3862000000000005,eV/atom,
EuMoClO$_{4}$,0.0,eV/atom,
MnSbPd$_{2}$,0.0,eV/atom,
Re(CO)$_{5}$,2.9920999999999998,eV/atom,
TmTe$_{2}$,0.0,eV/atom,
Sc$_{6}$NiTe$_{2}$,0.0,eV/atom,
SrTiO$_{3}$,1.8487999999999998,eV/atom,
NbPCl$_{8}$O,2.3986,eV/atom,
CaZn$_{13}$,0.0,eV/atom,
Cs$_{2}$MoS$_{4}$,1.8688000000000002,eV/atom,