formula,Property band_gap,Property band_gap units,Property SMILES
Dy$_{2}$O$_{3}$,4.1995000000000005,eV/atom,
Sr$_{2}$CrOsO$_{6}$,0.4546999999999999,eV/atom,
K$_{2}$ZnH$_{12}$(SO$_{7}$)$_{2}$,4.8902,eV/atom,
Li$_{3}$Al(BO$_{3}$)$_{2}$,4.8248,eV/atom,
InH$_{6}$(CO$_{3}$)$_{3}$,3.7005999999999997,eV/atom,
Rb$_{3}$NaPbO$_{4}$,1.6142999999999998,eV/atom,
NdSF,1.2363000000000004,eV/atom,
CsSnI$_{3}$,0.5064000000000002,eV/atom,
K$_{2}$S,2.0512,eV/atom,
Eu$_{4}$Bi$_{2}$O,0.0,eV/atom,
NdGeIr,0.0,eV/atom,
Cs$_{3}$CoBr$_{5}$,0.6983,eV/atom,
Mg$_{3}$B$_{2}$P$_{2}$(H$_{9}$O$_{10}$)$_{2}$,5.0287,eV/atom,
NaLaMnWO$_{6}$,2.6396999999999995,eV/atom,
Np(Mo$_{3}$Se$_{4}$)$_{2}$,0.0,eV/atom,
K$_{2}$TeO$_{3}$,3.5774,eV/atom,
Sr(AlS$_{2}$)$_{2}$,3.8928000000000003,eV/atom,
NbCoAs,0.0,eV/atom,
Pr(MnGe)$_{2}$,0.0,eV/atom,
PaO$_{2}$,0.0,eV/atom,
K$_{3}$Mn$_{3}$H$_{2}$C$_{12}$O$_{13}$,1.8800000000000003,eV/atom,
Ho$_{2}$Ga$_{8}$Fe,0.0,eV/atom,
NaGaO$_{2}$,2.7914,eV/atom,
U(CuGe)$_{2}$,0.0,eV/atom,
LaTiGe,0.0,eV/atom,
Er$_{3}$Ge$_{3}$Ru$_{2}$,0.0,eV/atom,
Ca$_{4}$Si$_{2}$O$_{7}$F$_{2}$,4.678,eV/atom,
H$_{6}$PtN$_{2}$ClO$_{5}$,0.3136,eV/atom,
InPb$_{2}$I$_{5}$,1.8602999999999996,eV/atom,
Nd$_{2}$Ga$_{2}$Fe$_{15}$,0.0,eV/atom,
BeBr$_{2}$,5.1775,eV/atom,
CrAgSe$_{2}$,0.3380000000000001,eV/atom,
ZrSiO$_{4}$,4.4661,eV/atom,
Cs$_{7}$Co$_{4}$F$_{15}$,3.0056,eV/atom,
U(CuP)$_{2}$,0.0,eV/atom,
U(BiO$_{3}$)$_{2}$,1.3333000000000004,eV/atom,
Tl$_{6}$TeO$_{6}$,1.5632999999999995,eV/atom,
Y$_{2}$Hf$_{2}$O$_{7}$,3.3374000000000006,eV/atom,
K$_{2}$Cu(CO$_{3}$)$_{2}$,0.6847999999999999,eV/atom,
Sr$_{2}$CuBrO$_{2}$,2.3439,eV/atom,
Nd(Al$_{2}$Cu)$_{4}$,0.0,eV/atom,
Li$_{2}$GePd,0.03400000000000025,eV/atom,
Tb$_{2}$Mg,0.0,eV/atom,
CdNi$_{3}$N,0.0,eV/atom,
FeSn$_{2}$,0.0,eV/atom,
DyGaPd,0.0,eV/atom,
Na$_{2}$SeO$_{4}$,3.3557,eV/atom,
Er$_{5}$Sn$_{3}$,0.0,eV/atom,
Fe$_{11}$Mo$_{6}$C$_{5}$,0.0,eV/atom,
V$_{3}$Ni,0.0,eV/atom,
BaCO$_{3}$,4.4099,eV/atom,
RbC$_{2}$N$_{3}$,4.5772,eV/atom,
SbP(Cl$_{3}$O)$_{2}$,2.2525,eV/atom,
Tm(CoSi)$_{2}$,0.0,eV/atom,
CeInCu,0.0,eV/atom,
Tl$_{2}$C$_{3}$O$_{4}$,2.9206000000000003,eV/atom,
HoVO$_{4}$,0.03799999999999937,eV/atom,
RbLiBr$_{2}$,4.322,eV/atom,
TiBrO,0.0,eV/atom,
Li$_{15}$Au$_{4}$,0.0,eV/atom,
Li$_{2}$BeH$_{4}$,0.0,eV/atom,
NaLaMgWO$_{6}$,3.4890000000000003,eV/atom,
Zn$_{5}$P$_{6}$H$_{22}$(NO$_{11}$)$_{2}$,4.9833,eV/atom,
Yb(MnAl$_{2}$)$_{4}$,0.0,eV/atom,
Na$_{5}$OsO$_{6}$,0.0,eV/atom,
GeSe,0.05830000000000002,eV/atom,
K$_{2}$BiF$_{5}$,4.7686,eV/atom,
SiO$_{2}$,5.7701,eV/atom,
ScTa(PbO$_{3}$)$_{2}$,2.5824,eV/atom,
AlPO$_{4}$,5.475,eV/atom,
GaAgO$_{2}$,0.5832999999999999,eV/atom,
Ce$_{3}$Si$_{2}$Rh$_{3}$,0.0,eV/atom,
Ag$_{5}$(PbO$_{3}$)$_{2}$,0.0,eV/atom,
Ho$_{14}$Ge$_{23}$,0.013700000000000045,eV/atom,
ReC,0.0,eV/atom,
Mn(NO$_{3}$)$_{2}$,2.7416,eV/atom,
V$_{16}$O$_{3}$,0.03960000000000008,eV/atom,
Mg$_{17}$Al$_{12}$,0.0,eV/atom,
Ce$_{3}$(CuSn)$_{4}$,0.0,eV/atom,
HoCu(MoO$_{4}$)$_{2}$,2.0583,eV/atom,
Na$_{5}$Zr$_{2}$F$_{13}$,6.1043,eV/atom,
CrP$_{3}$(HO$_{5}$)$_{2}$,3.2897999999999996,eV/atom,
Er$_{5}$Sb$_{3}$,0.0,eV/atom,
ScGeRu,0.0,eV/atom,
Co(AsO$_{3}$)$_{2}$,1.9811999999999999,eV/atom,
Pr$_{2}$InCu$_{2}$,0.0,eV/atom,
UO$_{3}$,1.6163,eV/atom,
Ba(LuS$_{2}$)$_{2}$,1.7477000000000005,eV/atom,
Sr(FeP)$_{2}$,0.0,eV/atom,
CdH$_{8}$C$_{2}$Br$_{3}$N,3.3781,eV/atom,
RbCaF$_{3}$,6.397399999999999,eV/atom,
Th(Re$_{2}$Si)$_{2}$,0.0,eV/atom,
Cr$_{2}$CuO$_{4}$,0.0,eV/atom,
NdIn$_{5}$Rh,0.0,eV/atom,
BaNa$_{2}$Ti$_{2}$(Si$_{2}$O$_{7}$)$_{2}$,3.3673,eV/atom,
USn$_{3}$,0.0,eV/atom,
TiNi$_{3}$,0.0,eV/atom,
Ba$_{2}$Cu$_{7}$(AsO$_{4}$)$_{6}$,0.37860000000000005,eV/atom,
Cu$_{15}$Si$_{4}$,0.0,eV/atom,
LiErO$_{2}$,4.171,eV/atom,
Sc$_{2}$Cu$_{2}$Ge$_{4}$O$_{13}$,0.19099999999999984,eV/atom,
Ba$_{2}$LaTaO$_{6}$,3.6207999999999996,eV/atom,
CuMoO$_{4}$,0.3464999999999998,eV/atom,
K$_{3}$MnH$_{5}$,1.5731000000000002,eV/atom,
NdCoSi$_{3}$,0.0,eV/atom,
H$_{10}$S(NO$_{2}$)$_{2}$,1.2048,eV/atom,
CaVO$_{3}$,0.23540000000000028,eV/atom,
Cs$_{2}$VCl$_{5}$O$_{4}$,0.0,eV/atom,
ReCl$_{5}$,0.0,eV/atom,
HfGe$_{2}$,0.0,eV/atom,
Li$_{5}$B$_{4}$,0.023800000000000043,eV/atom,
SrH$_{2}$I$_{2}$O$_{7}$,3.5296999999999996,eV/atom,[Sr+2].O=I(=O)[O-].O=I(=O)[O-].O
ZnNiSb,0.0,eV/atom,
MgFe$_{2}$P$_{2}$(HO)$_{18}$,2.3426,eV/atom,
BaSr$_{2}$Mn$_{2}$(Si$_{2}$O$_{7}$)$_{2}$,1.6195999999999997,eV/atom,
SmGa$_{6}$,0.0,eV/atom,
Ce(SiPt)$_{2}$,0.0,eV/atom,
Ca$_{5}$Ni$_{15}$B$_{4}$,0.0,eV/atom,
Cs$_{2}$FeH$_{12}$(SO$_{7}$)$_{2}$,4.2649,eV/atom,
Co$_{2}$Hg$_{2}$H$_{2}$S$_{2}$O$_{11}$,1.5807000000000002,eV/atom,
NdCrSe$_{3}$,0.0,eV/atom,
La$_{2}$SO$_{2}$,3.0609,eV/atom,
LaAlPt,0.0,eV/atom,
Na$_{3}$B$_{5}$Pt$_{9}$,0.0,eV/atom,
SiNi$_{2}$(P$_{2}$O$_{7}$)$_{2}$,4.3349,eV/atom,
Li$_{10}$Si$_{2}$PbO$_{10}$,2.9602999999999997,eV/atom,
Ba$_{2}$Co$_{2}$ClF$_{7}$,2.6528,eV/atom,
Na$_{2}$YbMoPO$_{8}$,0.0,eV/atom,
UBC,0.0,eV/atom,
V$_{2}$NiH$_{24}$(N$_{4}$O$_{5}$)$_{2}$,2.6436,eV/atom,
Sc$_{4}$Ge$_{6}$Rh$_{7}$,0.0,eV/atom,
Pr$_{2}$Au$_{5}$F$_{21}$,1.7724,eV/atom,
Ba$_{2}$NdAlO$_{5}$,3.6856,eV/atom,
Rb$_{2}$LiFe(CN)$_{6}$,0.0,eV/atom,
MoRh$_{3}$,0.0,eV/atom,
BaFe$_{4}$O$_{7}$,1.2527,eV/atom,
KCr$_{5}$Se$_{8}$,0.1187999999999998,eV/atom,
CeCu$_{6}$,0.007699999999999818,eV/atom,
BH$_{5}$NCl,5.4184,eV/atom,Cl.N
SnPH$_{5}$NO$_{4}$F,2.8792,eV/atom,
ZnP$_{4}$,0.9662999999999995,eV/atom,
Na$_{2}$CuF$_{4}$,0.8944999999999999,eV/atom,
H$_{9}$C$_{2}$N$_{7}$O$_{6}$,3.3053,eV/atom,
TiCoSi,0.0,eV/atom,
CsLiSO$_{4}$,5.3584,eV/atom,
Cs$_{4}$CO$_{4}$,1.7,eV/atom,
MgGa$_{2}$,0.0,eV/atom,
BaP$_{2}$(HO$_{2}$)$_{4}$,4.793,eV/atom,
KS$_{2}$N(O$_{2}$F)$_{2}$,5.4511,eV/atom,
RbGeI$_{3}$,0.5540000000000003,eV/atom,
Na$_{5}$Bi(P$_{2}$O$_{7}$)$_{2}$,4.2843,eV/atom,
GdHg$_{3}$,0.0,eV/atom,
H$_{7}$NO$_{6}$,3.5739,eV/atom,
ZrGeTe$_{4}$,0.38039999999999985,eV/atom,
GdRh$_{5}$,0.0,eV/atom,
NbTeI$_{3}$,0.45389999999999997,eV/atom,
NaMnCrF$_{6}$,3.279,eV/atom,
MgVBiO$_{5}$,3.1101,eV/atom,
HoSbPt,0.45840000000000014,eV/atom,
KLiS,2.732,eV/atom,
LiNiPO$_{4}$,3.409,eV/atom,
Sr$_{2}$MnMoO$_{6}$,1.2043,eV/atom,
Pr$_{2}$Se$_{2}$O,2.0603,eV/atom,
Cs$_{2}$MgH$_{4}$,3.8165,eV/atom,
Zr$_{3}$Fe$_{2}$Si$_{3}$,0.0,eV/atom,
Nd$_{2}$SnS$_{5}$,0.0,eV/atom,
Cu$_{2}$SnS$_{3}$,0.02120000000000033,eV/atom,
SrV$_{6}$O$_{15}$,0.08889999999999998,eV/atom,
InC$_{6}$(NCl$_{3}$)$_{2}$,0.0,eV/atom,
K$_{2}$Mo$_{2}$H$_{12}$C$_{4}$N(OF$_{3}$)$_{3}$,0.06259999999999999,eV/atom,
Nb$_{3}$VS$_{6}$,0.0,eV/atom,
Sm$_{2}$Fe$_{17}$C$_{3}$,0.0,eV/atom,
K$_{2}$PtF$_{6}$,2.5717,eV/atom,
GdZnRh,0.0,eV/atom,
SrHgO$_{2}$,2.1807,eV/atom,
Sm$_{5}$Si$_{4}$,0.0,eV/atom,
Si$_{3}$N$_{4}$,3.3332999999999995,eV/atom,
K$_{2}$Pd(NO$_{2}$)$_{4}$,2.0739,eV/atom,
MgB$_{4}$Os$_{3}$,0.0,eV/atom,
YbNi$_{2}$Sn,0.0,eV/atom,
HoSeF,2.833,eV/atom,
Tl$_{2}$CuAsO$_{4}$,1.7260000000000004,eV/atom,
Zr$_{4}$Fe$_{2}$H$_{2}$O,0.0,eV/atom,
Sm$_{4}$Mg$_{7}$Ge$_{6}$,0.0,eV/atom,
RbIn$_{5}$S$_{8}$,1.2599999999999998,eV/atom,
BaCeC$_{2}$O$_{6}$F,0.09210000000000029,eV/atom,
UCl$_{6}$,1.5939,eV/atom,
LiNdTi$_{2}$O$_{6}$,2.6756,eV/atom,
BaAs$_{3}$,0.0,eV/atom,
CaV$_{4}$(AgO$_{6}$)$_{2}$,1.9174000000000002,eV/atom,
Hg$_{5}$(SbI$_{3}$)$_{2}$,1.4109,eV/atom,
DyCrO$_{4}$,0.2492000000000001,eV/atom,
Tl(MoO$_{3}$)$_{3}$,0.0,eV/atom,
ErP$_{5}$O$_{14}$,5.444100000000001,eV/atom,
YbAl$_{7}$Au$_{3}$,0.0,eV/atom,
SmMg,0.0,eV/atom,
ZnAs$_{2}$C$_{6}$S$_{12}$N$_{12}$(OF$_{2}$)$_{6}$,2.2259,eV/atom,
CoCuH$_{18}$N$_{6}$Cl$_{5}$,0.49540000000000006,eV/atom,
Y$_{2}$WO$_{6}$,3.8042000000000002,eV/atom,
SrAlF$_{5}$,7.0874,eV/atom,
SrAl$_{2}$O$_{4}$,4.1398,eV/atom,
Cr$_{3}$PC,0.0,eV/atom,
CuHgSeCl,0.6294999999999997,eV/atom,
CsPrS$_{2}$,2.1610000000000005,eV/atom,
La$_{5}$Bi$_{3}$,0.0,eV/atom,
TbGa$_{6}$,0.0,eV/atom,
Li$_{2}$TeSe$_{3}$,0.5098000000000003,eV/atom,
RuO$_{4}$,2.3828,eV/atom,
Cs$_{2}$BeF$_{4}$,6.8746,eV/atom,
KV$_{5}$Co(H$_{8}$O$_{11}$)$_{2}$,2.0524999999999998,eV/atom,
Cs$_{4}$ZnO$_{3}$,1.6802,eV/atom,
Rb$_{2}$PdI$_{6}$,1.1296,eV/atom,
RbMnH$_{4}$Cl$_{3}$O$_{2}$,3.9221,eV/atom,
Ta,0.0,eV/atom,
Co$_{5}$Se$_{4}$(ClO$_{6}$)$_{2}$,2.4701,eV/atom,
C(Se$_{2}$Br)$_{2}$,1.4970999999999999,eV/atom,
PrNi$_{2}$,0.0,eV/atom,
Ce$_{2}$AlRu$_{2}$,0.0,eV/atom,
PH$_{3}$CS$_{3}$,2.1394,eV/atom,
Nd$_{2}$Co$_{7}$B$_{3}$,0.0,eV/atom,
KZr$_{2}$(AsO$_{4}$)$_{3}$,3.996,eV/atom,
AlSCl$_{3}$O$_{2}$,3.9643,eV/atom,
NaTe$_{3}$,0.5092000000000003,eV/atom,
DyGaO$_{3}$,3.6351000000000004,eV/atom,
Dy$_{2}$Fe$_{17}$,0.0,eV/atom,
NaLiB$_{4}$O$_{7}$,5.7974,eV/atom,
LaNiGe$_{2}$,0.0,eV/atom,
MgSe,1.7649000000000004,eV/atom,
HCl,0.0,eV/atom,
TiCo,0.0,eV/atom,
Sr$_{11}$In$_{3}$Ga$_{4}$,0.0,eV/atom,
Pd$_{3}$Au,0.0,eV/atom,
HCl,2.7912,eV/atom,O=Cl(=O)O
Mg(AlCl$_{4}$)$_{2}$,5.1636,eV/atom,
CrHg(PbO$_{3}$)$_{2}$,2.0835,eV/atom,
KBO$_{2}$,4.1301000000000005,eV/atom,
Li$_{3}$In$_{2}$,0.0,eV/atom,
Ba$_{3}$In$_{2}$Br$_{2}$O$_{5}$,1.2907000000000002,eV/atom,
La(ReSi)$_{2}$,0.0,eV/atom,
CaAl$_{2}$Si$_{2}$(H$_{2}$O$_{5}$)$_{2}$,5.0625,eV/atom,
TeI,0.7162999999999999,eV/atom,
Tm$_{3}$GaC,0.0,eV/atom,
Tb$_{7}$FeI$_{12}$,0.0,eV/atom,
PbBr$_{2}$,3.1375,eV/atom,
Cs$_{3}$ZnH$_{5}$,2.7476,eV/atom,
Ca$_{2}$B$_{5}$Os$_{3}$,0.005899999999999572,eV/atom,
Ca$_{7}$NbSi$_{4}$O$_{17}$F,3.5274,eV/atom,
Hf$_{3}$Tl$_{2}$(CuSe$_{4}$)$_{2}$,0.5087000000000002,eV/atom,
Hf(TlTe)$_{4}$,0.5049999999999999,eV/atom,
BPS$_{4}$,2.2625,eV/atom,
CeSnPt,0.0,eV/atom,
Bi$_{2}$SeO$_{2}$,0.3719000000000001,eV/atom,
Dy$_{2}$SO$_{2}$,3.0076000000000005,eV/atom,
ErAu$_{2}$,0.0,eV/atom,
MnGaPt,0.0,eV/atom,
Xe$_{2}$NO$_{2}$F$_{13}$,2.8973000000000004,eV/atom,
SrH$_{2}$,3.1544,eV/atom,
Tm$_{2}$Ni$_{12}$As$_{7}$,0.0,eV/atom,
Cs$_{3}$LiF$_{4}$,5.6548,eV/atom,
MnFeTe,0.0,eV/atom,
CSNO$_{3}$,3.7853,eV/atom,
CuH$_{22}$C$_{8}$N$_{10}$O,0.8007,eV/atom,
Mg$_{2}$H$_{6}$Os,3.3481,eV/atom,
Pr$_{3}$(CuSn)$_{4}$,0.0,eV/atom,
DyB$_{4}$Ru,0.0,eV/atom,
K$_{4}$Mo$_{3}$H$_{4}$O$_{17}$,2.4421999999999997,eV/atom,
BaZn$_{2}$(AsO$_{4}$)$_{2}$,2.9793,eV/atom,
DyTaO$_{4}$,4.0605,eV/atom,
ErSb$_{2}$,0.0,eV/atom,
YbGa$_{2}$,0.0,eV/atom,
SrAg,0.0,eV/atom,
KMgCl$_{3}$,4.4851,eV/atom,
HoAl$_{3}$,0.0,eV/atom,
EuTe,0.0,eV/atom,
V$_{4}$Cu$_{3}$S$_{8}$,0.002400000000000624,eV/atom,
RbNaH$_{2}$,2.0716,eV/atom,
Ce$_{2}$SiTeO$_{4}$,0.0015000000000000568,eV/atom,
Cs$_{3}$Cu$_{5}$O$_{4}$,1.6383,eV/atom,
Sr$_{4}$Cr$_{3}$O$_{9}$,0.0,eV/atom,
Pt(NCl)$_{4}$,0.0,eV/atom,
LiPrGe$_{2}$,0.0,eV/atom,
Sr$_{2}$Pb,0.008999999999999897,eV/atom,
SbPO$_{5}$,2.5466000000000006,eV/atom,
ThB$_{2}$Ru$_{3}$,0.0,eV/atom,
MgH$_{12}$(I$_{4}$O$_{3}$)$_{2}$,1.3114,eV/atom,
Hg$_{2}$TeBr$_{3}$,1.8766,eV/atom,
SiP$_{2}$O$_{7}$,5.7395,eV/atom,
ErRh$_{3}$C,0.0,eV/atom,
K$_{2}$P$_{3}$,1.1204999999999998,eV/atom,
Er$_{5}$Tl$_{3}$,0.0,eV/atom,
SrGa$_{2}$,0.0,eV/atom,
As$_{4}$N$_{2}$Cl$_{2}$O$_{7}$,0.0,eV/atom,
CsNa$_{2}$Ge$_{17}$,0.0,eV/atom,
Na$_{2}$Ti$_{2}$Se$_{9}$,0.9515000000000002,eV/atom,
CoH$_{3}$(CN)$_{6}$,4.1766000000000005,eV/atom,
Sr(AlGe)$_{2}$,0.0,eV/atom,
UH$_{12}$(NO$_{7}$)$_{2}$,2.412,eV/atom,O=[U+2]=O.O=[N+]([O-])[O-].O=[N+]([O-])[O-].O.O.O.O.O.O
Dy(Fe$_{2}$Si)$_{2}$,0.0,eV/atom,
Dy(CrGe)$_{6}$,0.0,eV/atom,
ScGa$_{2}$Ni,0.0,eV/atom,
MgO,3.2870999999999997,eV/atom,
Cr$_{2}$N,0.0,eV/atom,
Ho$_{2}$Te$_{4}$O$_{11}$,3.2288,eV/atom,
Eu(CoSi)$_{2}$,0.0,eV/atom,
Pt(NO$_{3}$)$_{2}$,0.0,eV/atom,
PbBrF,2.617,eV/atom,
Ba$_{11}$(CdSb$_{2}$)$_{6}$,0.5093999999999999,eV/atom,
EuIn$_{4}$Ir,0.0,eV/atom,
ZrBRh$_{3}$,0.0,eV/atom,
LuP$_{5}$O$_{14}$,5.4534,eV/atom,
K$_{2}$SnTe$_{5}$,0.5637999999999996,eV/atom,
Ba$_{3}$ZrRu$_{2}$O$_{9}$,0.0,eV/atom,
MnBiO$_{3}$,0.13379999999999992,eV/atom,
RbHF$_{2}$,6.6904,eV/atom,
MoN$_{2}$OF$_{5}$,0.0,eV/atom,
YNiSb,0.2962000000000007,eV/atom,
Cd$_{7}$P$_{10}$,1.2371000000000003,eV/atom,
CaO$_{2}$,2.7345,eV/atom,
Ga(Bi$_{3}$O$_{5}$)$_{4}$,2.3575999999999997,eV/atom,
Fe$_{2}$ClO$_{3}$,0.0,eV/atom,
NdGe$_{5}$,0.0,eV/atom,
Bi$_{2}$Ru$_{3}$(CO)$_{9}$,2.1010999999999997,eV/atom,
Dy$_{2}$InNi$_{2}$,0.0,eV/atom,
CsFeH$_{24}$(SeO$_{10}$)$_{2}$,2.9156999999999997,eV/atom,[Fe+3].[Cs+].O=[Se](=O)([O-])[O-].O=[Se](=O)([O-])[O-].O.O.O.O.O.O.O.O.O.O.O.O
Cs$_{2}$FeNi(CN)$_{6}$,1.5419000000000003,eV/atom,
VO$_{2}$,0.7470000000000003,eV/atom,
LiV$_{5}$H$_{18}$N$_{2}$O$_{19}$,2.4621,eV/atom,
NdAu,0.0,eV/atom,
InNi$_{2}$SbO$_{6}$,1.2775999999999996,eV/atom,
KB$_{5}$(H$_{2}$O$_{3}$)$_{4}$,5.635,eV/atom,
BaGa$_{2}$,0.0,eV/atom,
Sb$_{2}$MoS,0.006699999999999484,eV/atom,
HgBrO$_{3}$,3.1922,eV/atom,
Ba$_{10}$P$_{6}$SO$_{24}$,3.188,eV/atom,
Er$_{2}$O$_{3}$,3.9629000000000003,eV/atom,
CaCuSiH$_{2}$O$_{5}$,0.12199999999999989,eV/atom,
CsZr$_{6}$CI$_{14}$,0.007500000000000284,eV/atom,
CsGeBiS$_{4}$,2.0122,eV/atom,
BaCu$_{2}$(AsO$_{4}$)$_{2}$,0.0,eV/atom,
Tl$_{4}$Pd$_{3}$Cl$_{10}$,1.1367,eV/atom,
Eu(NiSb)$_{2}$,0.0,eV/atom,
TlPS$_{3}$,1.7362000000000002,eV/atom,
PNF$_{2}$,5.7734000000000005,eV/atom,
CS$_{3}$N,2.8222,eV/atom,N#CSSSSSSC#N
V$_{3}$H$_{4}$NO$_{8}$,2.1017,eV/atom,
Ce(IO$_{3}$)$_{4}$,1.4876,eV/atom,[Ce+4].O=I(=O)[O-].O=I(=O)[O-].O=I(=O)[O-].O=I(=O)[O-]
NaUO$_{4}$,0.0,eV/atom,
CsScAs$_{2}$(HO$_{4}$)$_{2}$,3.6849,eV/atom,
Tl$_{2}$PdCl$_{4}$,1.1509,eV/atom,
SrLuCuS$_{3}$,1.3435000000000006,eV/atom,
Ca$_{2}$SiH$_{2}$O$_{5}$,4.6543,eV/atom,
BaNaScSi$_{2}$O$_{7}$,4.6606,eV/atom,
CuAsPbO$_{4}$,1.7890000000000001,eV/atom,
NaMg$_{4}$V$_{3}$O$_{12}$,3.3215999999999997,eV/atom,
SrH$_{2}$N$_{2}$O$_{5}$,2.2801,eV/atom,
LiCaSi$_{2}$,0.0,eV/atom,
CsPr(PO$_{3}$)$_{4}$,5.2958,eV/atom,
Sr$_{2}$V$_{2}$O$_{7}$,3.3868,eV/atom,
TlPd$_{2}$Se$_{3}$,0.1379999999999999,eV/atom,
CaNiBP$_{2}$H$_{3}$O$_{10}$,4.3565,eV/atom,
AgB$_{2}$,0.0,eV/atom,
LiV$_{2}$F$_{6}$,0.13629999999999987,eV/atom,
La$_{2}$H$_{22}$S$_{6}$N$_{6}$O$_{23}$,4.3906,eV/atom,
Na$_{11}$U$_{5}$O$_{16}$,0.0,eV/atom,
PuH$_{18}$C$_{3}$S$_{3}$(O$_{2}$F)$_{9}$,0.0,eV/atom,
TaTeBr$_{9}$,2.1847000000000003,eV/atom,
MnCO$_{3}$,3.5444000000000004,eV/atom,
SiO$_{2}$,5.4801,eV/atom,
Cd$_{6}$Sb$_{5}$,0.0,eV/atom,
RbPO$_{3}$,5.109100000000001,eV/atom,
KCaCO$_{3}$F,4.3468,eV/atom,
VAgHgO$_{4}$,1.2167,eV/atom,
NpMn$_{2}$,0.0,eV/atom,
Nd$_{4}$MgIr,0.0,eV/atom,
YCrO$_{3}$,2.1654,eV/atom,
CaUO$_{4}$,2.1516,eV/atom,
Mo$_{4}$P$_{3}$,0.0,eV/atom,
Co$_{21}$(SnB$_{3}$)$_{2}$,0.0,eV/atom,
DyBC,0.18040000000000012,eV/atom,
GdWClO$_{4}$,2.5147,eV/atom,
U(PbO$_{2}$)$_{3}$,1.5265000000000004,eV/atom,
Ba$_{4}$UCr$_{2}$S$_{9}$,0.0,eV/atom,
La$_{5}$Ru$_{2}$,0.0,eV/atom,
Ba$_{4}$Ga$_{2}$S$_{7}$,2.6305,eV/atom,
LiHS,3.5474,eV/atom,
H$_{2}$WO$_{4}$,1.4492,eV/atom,
AgSb$_{2}$F$_{12}$,0.5386999999999997,eV/atom,
KBrF$_{4}$,0.8666,eV/atom,
KP(HO$_{2}$)$_{2}$,5.4325,eV/atom,
Dy(SiPd)$_{2}$,0.0,eV/atom,
NdCo$_{9}$Si$_{4}$,0.0,eV/atom,
Ti$_{2}$MnAl,0.05109999999999992,eV/atom,
TeMo$_{5}$O$_{16}$,1.2441,eV/atom,
Na$_{2}$CuAs,0.6589999999999998,eV/atom,
LiInSe$_{2}$,0.8380999999999998,eV/atom,
TaIr,0.0,eV/atom,
NpO$_{2}$,0.0,eV/atom,
HgO$_{2}$,0.11099999999999999,eV/atom,
Ba$_{2}$CoMoO$_{6}$,1.0715999999999997,eV/atom,
Sr$_{2}$DyMoO$_{6}$,1.3291,eV/atom,
SrTiN$_{2}$,0.7925999999999997,eV/atom,
Ta$_{2}$Bi$_{4}$O$_{11}$,2.7997000000000005,eV/atom,
BaMgPb,0.0,eV/atom,
KCN,5.0381,eV/atom,
Cs$_{2}$LiI$_{3}$,3.7614,eV/atom,
La$_{3}$RuO$_{7}$,0.0,eV/atom,
NaO$_{3}$,0.5780000000000001,eV/atom,
NaBH$_{4}$,6.5862,eV/atom,
C,0.010999999999999677,eV/atom,[C]
Cu(IrS$_{2}$)$_{2}$,0.0,eV/atom,
CsGaBr$_{4}$,3.3514,eV/atom,
HfAu$_{3}$,0.0,eV/atom,
U$_{2}$Ni$_{12}$P$_{7}$,0.0038999999999997925,eV/atom,
La$_{2}$TiZnO$_{6}$,2.9182000000000006,eV/atom,
TiAl$_{2}$O$_{5}$,2.9468,eV/atom,
HfP$_{2}$(H$_{3}$O$_{5}$)$_{2}$,5.2369,eV/atom,
Ni$_{6}$Se$_{5}$,0.0,eV/atom,
TmAl$_{3}$,0.0,eV/atom,
Os$_{5}$C$_{15}$SO$_{15}$,2.1273,eV/atom,
Li$_{8}$SeN$_{2}$,1.7523,eV/atom,
Gd$_{2}$TeO$_{6}$,2.6902000000000004,eV/atom,
YMnO$_{3}$,0.0,eV/atom,
Mg(BrN$_{3}$)$_{2}$,0.0,eV/atom,
RbV$_{5}$Se$_{8}$,0.0,eV/atom,
ScCl,0.0,eV/atom,
KNbF$_{6}$,5.1345,eV/atom,
Nd(NiSb)$_{2}$,0.0,eV/atom,
VSn$_{2}$,0.0,eV/atom,
Sm$_{3}$CuSnS$_{7}$,1.6872999999999996,eV/atom,
LaI$_{2}$,0.0,eV/atom,
SrV$_{2}$P$_{2}$O$_{9}$,1.4685999999999995,eV/atom,
YPt,0.0,eV/atom,
Sb$_{3}$Rh,0.0,eV/atom,
KUSi$_{2}$O$_{7}$,0.5872000000000002,eV/atom,
Ba$_{2}$CoSi$_{2}$O$_{7}$,2.9441,eV/atom,
LuSnPd,0.0,eV/atom,
Tm$_{2}$Pd$_{2}$Pb,0.0,eV/atom,
CsHgBr$_{3}$,0.0,eV/atom,
TbIn$_{2}$Ni,0.0,eV/atom,
NdCuSO,1.6136999999999997,eV/atom,
AlTeI$_{7}$,1.8759,eV/atom,
Tb(NbSn)$_{6}$,0.0,eV/atom,
Li$_{7}$MnN$_{4}$,0.6562000000000001,eV/atom,
SnTe,0.24029999999999996,eV/atom,
BaZnFeF$_{7}$,3.4129,eV/atom,
Mo$_{3}$P$_{5}$Pb$_{3}$O$_{23}$,2.5385000000000004,eV/atom,
K$_{6}$MgO$_{4}$,1.6783000000000001,eV/atom,
Eu$_{2}$SiS$_{4}$,0.3846000000000007,eV/atom,
B$_{2}$PCl$_{2}$,3.8135,eV/atom,
Li$_{15}$Si$_{4}$,0.0,eV/atom,
Tb$_{2}$C,0.0,eV/atom,
Tm(NiGe)$_{2}$,0.0,eV/atom,
Cd(IO$_{3}$)$_{2}$,3.2739000000000003,eV/atom,
TiSO$_{5}$,2.5707,eV/atom,
Na$_{4}$P$_{2}$H$_{4}$CO$_{9}$,2.1219,eV/atom,
Rb$_{2}$Te$_{2}$Pt,0.9276,eV/atom,
Yb(GaFe)$_{6}$,0.0,eV/atom,
KTiI$_{3}$,0.0,eV/atom,
Th$_{3}$Pt$_{5}$,0.0,eV/atom,
LaBO$_{3}$,4.500700000000001,eV/atom,
KMoPClO$_{5}$,2.01,eV/atom,
KSbS$_{2}$,1.5969000000000002,eV/atom,
YbCuSb,0.0,eV/atom,
NiH$_{12}$(ClO$_{3}$)$_{2}$,4.0848,eV/atom,
CrGa$_{3}$P$_{4}$,0.0,eV/atom,
KZrCuSe$_{3}$,0.2256999999999998,eV/atom,
CsBrF$_{6}$,4.0158,eV/atom,
Y$_{2}$MoO$_{6}$,2.2728,eV/atom,
Si$_{3}$Bi$_{2}$O$_{9}$,3.5103,eV/atom,
SiO$_{2}$,4.5606,eV/atom,
Ho$_{2}$MoO$_{6}$,2.1491000000000002,eV/atom,
V$_{2}$NiSb,0.0,eV/atom,
Ce(Tl$_{3}$Te$_{2}$)$_{3}$,0.028900000000000148,eV/atom,
Na$_{9}$Cr$_{2}$(H$_{9}$O$_{7}$)$_{3}$,3.3093,eV/atom,
ScGaPt,0.0,eV/atom,
GaP$_{3}$(HO$_{5}$)$_{2}$,4.9811,eV/atom,
WCl$_{4}$,0.2519,eV/atom,
PrPPd,0.0,eV/atom,
Na$_{2}$W$_{2}$O$_{7}$,2.4570999999999996,eV/atom,
K$_{3}$AlP$_{2}$,0.6989999999999998,eV/atom,
Co(RhSe$_{2}$)$_{2}$,0.0,eV/atom,
PS$_{2}$N$_{3}$(Cl$_{2}$O)$_{2}$,3.945,eV/atom,
NpS,0.0,eV/atom,
Tb$_{3}$Ir,0.0,eV/atom,
SmB$_{2}$Rh$_{2}$C,0.0,eV/atom,
C,1.0285000000000002,eV/atom,[C]
ErS,0.0,eV/atom,
Li$_{2}$Pd,0.0,eV/atom,
CoCl$_{2}$,0.15389999999999993,eV/atom,
H$_{3}$N,4.3286999999999995,eV/atom,
NdIn$_{4}$Ni,0.0,eV/atom,
Re$_{3}$Ru,0.0,eV/atom,
ErSnPd$_{2}$,0.0,eV/atom,
In$_{2}$Ag,0.0,eV/atom,
Ba$_{2}$CoSi$_{2}$O$_{7}$,2.9050000000000002,eV/atom,
Re$_{2}$Te$_{5}$,0.6052999999999997,eV/atom,
RbB$_{2}$P$_{2}$HO$_{9}$,5.7824,eV/atom,
Sr$_{2}$TaN$_{3}$,2.4659,eV/atom,
KTa(BO$_{3}$)$_{2}$,3.6133,eV/atom,
SiAgPt$_{5}$,0.0,eV/atom,
Te$_{6}$IrCl$_{3}$,1.2143000000000002,eV/atom,
KTlF$_{4}$,2.3067,eV/atom,
CsK$_{5}$Ru$_{2}$O$_{9}$,0.19710000000000005,eV/atom,
SnCl$_{2}$,3.0724,eV/atom,
PbS,1.2344,eV/atom,
TmSnAu,0.0,eV/atom,
CaPb$_{3}$,0.0,eV/atom,
SrGeTeO$_{6}$,2.9532,eV/atom,
Zr$_{5}$Si$_{4}$,0.0,eV/atom,
Ti$_{3}$Mn$_{3}$O,0.0,eV/atom,
Li$_{2}$MgBr$_{4}$,4.5262,eV/atom,
MoPt$_{3}$,0.0,eV/atom,
Na$_{2}$TiSiO$_{5}$,3.2081,eV/atom,
Na$_{3}$SbP$_{2}$O$_{9}$,2.6288,eV/atom,
InBr$_{2}$,2.4137,eV/atom,
Na$_{4}$TlAu,0.0,eV/atom,
Dy$_{3}$(AlNi$_{3}$)$_{2}$,0.0,eV/atom,
EuCrO$_{4}$,0.03509999999999991,eV/atom,
CaSiSnO$_{5}$,3.2240999999999995,eV/atom,
YZnAsO,1.2061000000000002,eV/atom,
Cs$_{2}$KMn$_{3}$F$_{12}$,1.947,eV/atom,
DyCuTe$_{2}$ClO$_{6}$,0.39460000000000006,eV/atom,
CeIr$_{5}$,0.0,eV/atom,
BaPb$_{2}$BrF$_{5}$,3.2598,eV/atom,
CsCeSiSe$_{4}$,0.15280000000000005,eV/atom,
Hg(NCl)$_{2}$,0.8311000000000001,eV/atom,
CrPSe$_{3}$,0.0,eV/atom,
Ce$_{9}$Sb$_{16}$Cl$_{3}$,0.0,eV/atom,
Co$_{8}$C$_{24}$(SO$_{7}$)$_{3}$,1.4797,eV/atom,
ZrIN,0.7367999999999997,eV/atom,
HoCoSn,0.0,eV/atom,
Th(CoAs)$_{2}$,0.0,eV/atom,
K$_{2}$BeH$_{4}$(SeO$_{5}$)$_{2}$,3.6123,eV/atom,
Cs$_{2}$Ni$_{3}$Se$_{4}$,0.6301000000000001,eV/atom,
Cu$_{2}$SeO$_{4}$,0.0,eV/atom,
AsS$_{3}$(NF$_{3}$)$_{2}$,1.483,eV/atom,
Yb$_{2}$Cu$_{4}$As$_{3}$,0.03440000000000065,eV/atom,
AlH$_{10}$SO$_{9}$F,5.459199999999999,eV/atom,
CeFeAsO,0.0,eV/atom,
TbAg,0.0,eV/atom,
La$_{2}$HfNiO$_{6}$,1.9902000000000006,eV/atom,
ErCu,0.0,eV/atom,
Na$_{4}$Mo(NO)$_{2}$,2.2032999999999996,eV/atom,
TmIO,3.3943,eV/atom,
Nd$_{5}$Mo$_{3}$O$_{16}$,0.0,eV/atom,
H$_{4}$N$_{2}$O$_{3}$,3.0482,eV/atom,
BaPdF$_{4}$,1.3729,eV/atom,
Sn$_{4}$BRh$_{6}$,0,eV/atom,
Eu(NiP)$_{2}$,0.0,eV/atom,
Li$_{2}$Sb,0.0,eV/atom,
Li$_{2}$TlAu,0.0,eV/atom,
Cs$_{3}$MgH$_{5}$,2.6053,eV/atom,