formula,Property band_gap,Property band_gap units,Property SMILES
Tm$_{2}$InAu$_{2}$,0.0,eV/atom,
B$_{2}$H$_{10}$C$_{2}$NClO$_{3}$,3.8902,eV/atom,
Mn$_{2}$SiNi,0.0,eV/atom,
ClF$_{3}$,2.5828,eV/atom,FCl(F)F
VFeSb,0.0,eV/atom,
SbOF,3.3226999999999998,eV/atom,
Cs$_{3}$Pt,0.0,eV/atom,
KAuSe$_{5}$,1.0431,eV/atom,
ZnS,2.0318000000000005,eV/atom,
Mg$_{3}$P$_{2}$(HO)$_{16}$,4.9866,eV/atom,
Tl(MoSe)$_{3}$,0.0,eV/atom,
LaB$_{2}$Ru$_{3}$,0.0,eV/atom,
Rb$_{5}$Tl$_{3}$O,0.0,eV/atom,
RbMnO$_{2}$,1.9609,eV/atom,
ZrCl,0.0,eV/atom,
SmH$_{18}$(IO$_{3}$)$_{3}$,4.1273,eV/atom,
U(PO$_{3}$)$_{4}$,0.2829999999999999,eV/atom,
Te$_{2}$OsCl$_{12}$,0.0,eV/atom,
Rb$_{2}$IN$_{3}$,3.9553,eV/atom,
GdAl$_{3}$Pd$_{2}$,0.021600000000000286,eV/atom,
Eu$_{2}$BBrN$_{2}$,0.030100000000000016,eV/atom,
SmCuSeF,0.0,eV/atom,
Ce$_{2}$Ni$_{5}$B$_{4}$,0.0,eV/atom,
U(CuSi)$_{2}$,0.0,eV/atom,
Sb$_{2}$(AuF$_{6}$)$_{3}$,0.16720000000000002,eV/atom,
La$_{3}$NbO$_{7}$,2.7212999999999994,eV/atom,
RbClO$_{2}$,2.3707000000000003,eV/atom,
MgAlPO$_{5}$,4.9741,eV/atom,
Sc(FeSn)$_{6}$,0.0,eV/atom,
Er$_{2}$SiO$_{5}$,4.754099999999999,eV/atom,
NbCu$_{3}$Te$_{4}$,0.9408000000000003,eV/atom,
C,4.1128,eV/atom,
Nd$_{2}$WC$_{2}$,0.0,eV/atom,
CeSnAu,0.0,eV/atom,
C$_{11}$F$_{7}$,2.2206,eV/atom,FC=1C(F)=C(F)C(C#CC2=C(F)C(F)=C(C#CC=3C(F)=C(F)C(F)=C(F)C3F)C(F)=C2F)=C(F)C1F
Ca$_{3}$Nb$_{2}$CoO$_{9}$,2.2592,eV/atom,
La(In$_{2}$Au)$_{2}$,0.0,eV/atom,
Cs$_{2}$Ti$_{2}$S$_{9}$,1.0651,eV/atom,
CaV$_{4}$(CuO$_{4}$)$_{3}$,0.0,eV/atom,
Er$_{3}$Ga$_{8}$Ag$_{3}$,0.0,eV/atom,
CdI$_{2}$,2.3944,eV/atom,
Er$_{2}$AlSi$_{2}$,0.0,eV/atom,
BaPPt,0.0,eV/atom,
Sm$_{3}$Ir,0.0,eV/atom,
YbAg$_{2}$,0.0,eV/atom,
Na$_{3}$P$_{11}$,1.8326000000000002,eV/atom,
Pr$_{3}$GePO$_{9}$,4.5689,eV/atom,
KP$_{2}$WO$_{8}$,3.5098,eV/atom,
Pr$_{3}$PbC,0.0,eV/atom,
K$_{4}$ZnAs$_{2}$,0.7257,eV/atom,
MnRh,0.0,eV/atom,
La$_{7}$C$_{3}$I$_{10}$,0.0,eV/atom,
CsZnPO$_{4}$,3.9581999999999997,eV/atom,
V$_{2}$CrS$_{4}$,0.0,eV/atom,
Tb$_{2}$ReC$_{2}$,0.0,eV/atom,
Hf$_{3}$(Cu$_{2}$Ge)$_{2}$,0.0,eV/atom,
SrMnSb$_{2}$,0.0,eV/atom,
NdBO$_{3}$,4.6987,eV/atom,
MnPH$_{5}$CO$_{4}$,3.3453999999999997,eV/atom,[Mn+2].[H]O[H].[H]C([H])([H])P(=O)([O-])[O-]
CrGaFe$_{2}$,0.0,eV/atom,
MnSbRh,0.0,eV/atom,
BaBe$_{2}$Si$_{2}$O$_{7}$,5.5249,eV/atom,
CoMoP,0.0,eV/atom,
NaSn$_{2}$F$_{5}$,3.7838,eV/atom,
Pr$_{2}$B$_{3}$Cl,0.0,eV/atom,
BC$_{2}$N,0.23209999999999997,eV/atom,
CoH$_{2}$SeO$_{5}$,2.4837,eV/atom,
Tm(SiNi$_{5}$)$_{2}$,0.0,eV/atom,
H$_{2}$Os$_{4}$Pt(CO)$_{15}$,1.8919000000000001,eV/atom,
YIr$_{2}$,0.0,eV/atom,
Sr(RuO$_{3}$)$_{2}$,0.030199999999999783,eV/atom,
HoNiBi,0.19380000000000042,eV/atom,
W$_{18}$O$_{49}$,0.0,eV/atom,
K$_{3}$Nb$_{2}$Se$_{11}$,1.0590000000000002,eV/atom,
EuAgSb,0.0,eV/atom,
Dy$_{3}$(CoGe$_{2}$)$_{2}$,0.0,eV/atom,
TbMgCo$_{4}$,0.0,eV/atom,
YbAl$_{2}$,0.0,eV/atom,
Sr$_{2}$CoReO$_{6}$,0.0,eV/atom,
KAuI$_{4}$,0.3003,eV/atom,
HfCoSn,0.0,eV/atom,
ZrH$_{3}$NF$_{4}$,4.7782,eV/atom,
K$_{6}$NbTlAs$_{4}$,1.1811,eV/atom,
EuPS$_{3}$,0.7445000000000004,eV/atom,
CaCu,0.0,eV/atom,
ZrRh$_{3}$,0.0,eV/atom,
AgSO$_{4}$,0.0,eV/atom,
Tm$_{3}$Ni$_{7}$B$_{2}$,0.0,eV/atom,
NaPO$_{3}$,5.1221,eV/atom,
Sb$_{2}$Os,0.34339999999999904,eV/atom,
CdI$_{2}$,2.34,eV/atom,
Th$_{2}$Cu(PO$_{4}$)$_{3}$,2.9243000000000006,eV/atom,
Pr$_{4}$V$_{5}$(Si$_{2}$O$_{11}$)$_{2}$,0.8928000000000003,eV/atom,
Dy$_{6}$FeSb$_{2}$,0.0,eV/atom,
SrGaGe,0.0,eV/atom,
Cr$_{2}$CoO$_{4}$,2.6060000000000003,eV/atom,
Dy$_{2}$InGe$_{2}$,0.0,eV/atom,
BaTiO$_{3}$,1.7227999999999999,eV/atom,
Nd$_{5}$Ga$_{3}$,0.0,eV/atom,
Co$_{3}$Mo,0.0,eV/atom,
SmVO$_{4}$,2.926,eV/atom,
DyTl(PSe$_{3}$)$_{2}$,1.5485000000000002,eV/atom,
LiAu(S$_{2}$O$_{7}$)$_{2}$,1.944,eV/atom,[Li+].[Au+3].O=S(=O)([O-])OS(=O)(=O)[O-].O=S(=O)([O-])OS(=O)(=O)[O-]
MnNi$_{3}$,0.0,eV/atom,
ErTlSe$_{2}$,2.1451000000000002,eV/atom,
Cs$_{2}$PbO$_{2}$,1.8593000000000002,eV/atom,
Sm(CoP)$_{2}$,0.0,eV/atom,
NaH$_{6}$BrO$_{5}$,2.1492,eV/atom,
HgCS(NCl)$_{2}$,0.0,eV/atom,
SmNiSb$_{3}$,0.0,eV/atom,
H$_{9}$C$_{2}$N$_{11}$O$_{8}$,2.7521,eV/atom,
Ag$_{9}$(BiO$_{3}$)$_{2}$,0.5562,eV/atom,
K$_{3}$Na$_{2}$InO$_{4}$,1.9057,eV/atom,
SbN$_{3}$Cl$_{4}$,1.8875,eV/atom,
ZrVSi,0.0,eV/atom,
Pb$_{2}$O,0.0,eV/atom,
GdH$_{18}$C$_{3}$S$_{3}$(O$_{2}$F)$_{9}$,3.6147,eV/atom,
Cs$_{2}$AgI$_{3}$,2.6311,eV/atom,
CsNb(PO$_{4}$)$_{2}$,2.5389,eV/atom,
Br,0.0,eV/atom,
Ba$_{10}$Ga,0.0,eV/atom,
NaTi(SiO$_{3}$)$_{2}$,0.1839000000000004,eV/atom,
CaCo$_{2}$Te$_{3}$(ClO$_{4}$)$_{2}$,2.6008999999999998,eV/atom,
RbIn$_{4}$,0.0,eV/atom,
Sr$_{2}$UO$_{5}$,2.1693,eV/atom,
LiO$_{3}$,0.17820000000000003,eV/atom,
Sm$_{2}$Se$_{5}$O$_{13}$,3.6065,eV/atom,
CdCu$_{2}$,0.0,eV/atom,
As$_{4}$S$_{3}$,2.3035,eV/atom,
Cu$_{2}$WO$_{4}$,1.3371000000000004,eV/atom,
AlCrCu$_{2}$,0.0,eV/atom,
HoVO$_{4}$,2.9556,eV/atom,
VP,0.0,eV/atom,
InPd$_{2}$,0.0,eV/atom,
CsH,2.5693,eV/atom,
CsK$_{2}$Ho(PO$_{4}$)$_{2}$,4.8777,eV/atom,
SmH$_{12}$(NO$_{5}$)$_{3}$,2.2389,eV/atom,
ZrC,0.0,eV/atom,
TiI$_{4}$,1.0867,eV/atom,
ScSnPt$_{2}$,0.0,eV/atom,
Sr$_{2}$MgUO$_{6}$,2.1157,eV/atom,
Zr$_{5}$GaSn$_{3}$,0.0,eV/atom,
Ga$_{3}$Te$_{3}$I,1.2590999999999997,eV/atom,
Pu$_{3}$Sn,0.0,eV/atom,
ZrNiSn,0.0,eV/atom,
ErAs,0.0,eV/atom,
CaH$_{8}$(ClO$_{2}$)$_{2}$,5.1371,eV/atom,
PrSi,0.0,eV/atom,
KLiSO$_{4}$,5.3221,eV/atom,
CdI$_{2}$,2.3546,eV/atom,
Na$_{4}$ZnP$_{6}$(HO$_{2}$)$_{12}$,4.552,eV/atom,
CsLiCl$_{2}$,5.0329,eV/atom,
CaCN$_{2}$,3.5804,eV/atom,
U$_{2}$Te$_{5}$,0.0,eV/atom,
Er(Ni$_{2}$As)$_{2}$,0.013099999999999667,eV/atom,
Rb$_{10}$Si$_{6}$O$_{17}$,3.4663,eV/atom,
GeP,0.0945999999999998,eV/atom,
Mn(NbS$_{2}$)$_{4}$,0.0,eV/atom,
Ge$_{2}$Sb$_{2}$Te$_{5}$,0.0,eV/atom,
Ba$_{2}$ReO$_{5}$,0.0,eV/atom,
Cs$_{7}$(In$_{2}$Bi$_{3}$)$_{2}$,0.4283999999999999,eV/atom,
Rb$_{3}$As$_{7}$,1.5282,eV/atom,
Sr$_{3}$Cr$_{2}$O$_{8}$,0.0,eV/atom,
Ho$_{11}$Ge$_{10}$,0.0,eV/atom,
Ba(AsRh)$_{2}$,0.0,eV/atom,
ZrAl$_{5}$Ni$_{2}$,0.0,eV/atom,
AlCuO$_{2}$,1.8022999999999998,eV/atom,
NaCa$_{9}$Mn(PO$_{4}$)$_{7}$,4.244,eV/atom,
Sr(BrO$_{3}$)$_{2}$,4.1387,eV/atom,
AgBi$_{2}$Se$_{3}$Cl,0.5499999999999998,eV/atom,
H$_{2}$,6.2332,eV/atom,
Mg$_{2}$Pb,0.0,eV/atom,
Ce$_{2}$Si$_{3}$Rh,0.0,eV/atom,
Na$_{4}$Nb$_{9}$(P$_{2}$O$_{13}$)$_{3}$,2.3043,eV/atom,
ScGaPd$_{2}$,0.0,eV/atom,
CdP$_{2}$H$_{6}$O$_{7}$,4.8402,eV/atom,
CrXeF$_{6}$,1.7997999999999998,eV/atom,
Te$_{2}$AuCl,0.0,eV/atom,
TmAl$_{2}$,0.0,eV/atom,
CsRe$_{3}$(O$_{3}$F$_{5}$)$_{2}$,3.0448,eV/atom,
NaSbF$_{6}$,4.8892,eV/atom,
KPO$_{3}$,4.821199999999999,eV/atom,
H$_{2}$Pb$_{4}$C(Cl$_{3}$O$_{2}$)$_{2}$,3.55,eV/atom,
MgPt$_{3}$,0.0,eV/atom,
YbBiAu,0.0,eV/atom,
Lu(Fe$_{2}$Ge)$_{2}$,0.0,eV/atom,
Mo$_{3}$Pt$_{2}$N,0.0,eV/atom,
PrFeSi$_{2}$,0.0,eV/atom,
Ni$_{3}$(SnS)$_{2}$,0.0,eV/atom,
TlPd$_{2}$,0.0,eV/atom,
Fe$_{5}$SiB$_{2}$,0.0,eV/atom,
Ba$_{2}$SmNbO$_{6}$,2.8503,eV/atom,
Si$_{2}$N$_{2}$O,5.177900000000001,eV/atom,
CdI$_{2}$,2.3387000000000002,eV/atom,
Tm$_{3}$Ga$_{9}$Pt$_{2}$,0.0,eV/atom,
ZrAu$_{3}$,0.0,eV/atom,
Er$_{2}$Mo$_{2}$C$_{3}$,0.0,eV/atom,
CsReOF$_{6}$,2.9741,eV/atom,
K$_{2}$AlF$_{5}$,6.3239,eV/atom,
H$_{2}$O,5.461,eV/atom,
BiS$_{4}$N$_{3}$Cl$_{4}$,2.0457,eV/atom,
Ta$_{2}$Tl$_{2}$P$_{7}$HO$_{24}$,3.2302,eV/atom,
Na$_{3}$Mg$_{2}$P$_{5}$O$_{16}$,4.8098,eV/atom,
Ag$_{2}$S,0.9944999999999999,eV/atom,
NaCa$_{4}$Si$_{8}$H$_{16}$O$_{28}$F,4.8688,eV/atom,
SnO$_{2}$,0.5796999999999999,eV/atom,
ZrS,0.0,eV/atom,
LiVS$_{2}$,0.0,eV/atom,
RbCeS$_{2}$,0.059499999999999886,eV/atom,
Yb(Al$_{2}$Cu)$_{4}$,0.0,eV/atom,
La$_{2}$Ti$_{2}$O$_{7}$,2.9172000000000002,eV/atom,
Pr(PO$_{3}$)$_{3}$,5.4756,eV/atom,
Be$_{12}$Fe,0.0,eV/atom,
Cu$_{5}$As$_{2}$,0.0,eV/atom,
Ni(PO$_{3}$)$_{2}$,4.4515,eV/atom,
Li$_{3}$B$_{7}$O$_{12}$,5.6047,eV/atom,
K$_{2}$PuCl$_{5}$,0.08990000000000009,eV/atom,
LiAlH$_{4}$,3.9596999999999998,eV/atom,
TmGa$_{2}$Ni$_{3}$,0.0,eV/atom,
SiH$_{14}$(O$_{2}$F$_{3}$)$_{2}$,6.9742999999999995,eV/atom,[H+].[H+].F[Si-2](F)(F)(F)(F)F.O.O.O.O.O.O
La$_{3}$Si$_{2}$S$_{8}$Br,2.5850999999999997,eV/atom,
K$_{3}$B$_{12}$H$_{12}$I,4.6690000000000005,eV/atom,
Ba$_{2}$H$_{6}$Os,1.9655,eV/atom,
NaSmGeO$_{4}$,3.5475999999999996,eV/atom,
PbF$_{2}$,4.3823,eV/atom,
NdPIr,0.0,eV/atom,
Ti$_{4}$Bi$_{2}$O$_{11}$,2.0404000000000004,eV/atom,
ZrCuGeAs,0.0,eV/atom,
TiZn$_{3}$,0.0,eV/atom,
Mg$_{3}$Fe$_{2}$(SiO$_{4}$)$_{3}$,2.7116999999999996,eV/atom,
Al$_{2}$CuSi$_{2}$O$_{7}$F$_{2}$,0.6347999999999998,eV/atom,
BaSr$_{2}$(PN$_{2}$)$_{6}$,4.1542,eV/atom,
NaCrH$_{8}$(NF$_{3}$)$_{2}$,3.9976000000000003,eV/atom,
Sb(IF$_{3}$)$_{2}$,0.559,eV/atom,
Zn(SbO$_{3}$)$_{2}$,0.5421999999999993,eV/atom,
AgBTe$_{4}$C$_{2}$(O$_{3}$F$_{10}$)$_{2}$,2.8863000000000003,eV/atom,
Ba$_{7}$Al$_{13}$,0.0,eV/atom,
ScAgO$_{2}$,2.1151,eV/atom,
Ba$_{2}$CaTeO$_{6}$,2.9976,eV/atom,
Bi$_{2}$Rh$_{2}$O$_{7}$,0.0,eV/atom,
LiHg,0.0,eV/atom,
Al$_{3}$Ni$_{5}$,0.0,eV/atom,
Dy$_{2}$TeO$_{2}$,1.0886000000000005,eV/atom,
K$_{4}$CdAs$_{2}$,0.6093999999999999,eV/atom,
TmZrSb,0.0,eV/atom,
KP(HO$_{2}$)$_{2}$,5.3629999999999995,eV/atom,
Ho(CuSi)$_{2}$,0.0,eV/atom,
CdC$_{2}$(SN)$_{2}$,3.2981000000000003,eV/atom,
RbZn$_{4}$As$_{3}$,0.0,eV/atom,
CaSnO$_{3}$,2.9435,eV/atom,
Ba$_{2}$Hg,0.0,eV/atom,
Ca(PPd)$_{2}$,0.0,eV/atom,
CsCl,4.8492,eV/atom,
Rb$_{2}$Pd(IBr$_{2}$)$_{2}$,0.5302,eV/atom,
Se$_{2}$O$_{5}$,2.885,eV/atom,O=[Se+2].O=[Se](=O)([O-])[O-]
CeAl$_{3}$Pd$_{2}$,0.0,eV/atom,
CuH$_{18}$C$_{4}$N$_{10}$(ClO)$_{2}$,0.8257000000000001,eV/atom,Cl[Cu]Cl.O.O.N=C(N)NC(=N)N.N=C(N)NC(=N)N
LaMgGa,0.0,eV/atom,
K$_{2}$RbTbV$_{2}$O$_{8}$,3.3998999999999997,eV/atom,
SrPSe$_{3}$,2.1332999999999998,eV/atom,
LaAlSi$_{2}$,0.0,eV/atom,
Zn(InS$_{2}$)$_{2}$,0.13640000000000008,eV/atom,
Na$_{2}$Si$_{2}$S$_{5}$,3.5318,eV/atom,
Hf$_{2}$GaSb$_{3}$,0.0,eV/atom,
TmSi$_{3}$Rh$_{5}$,0.0,eV/atom,
Rb$_{2}$Te$_{5}$,0.22820000000000018,eV/atom,
InAgSe$_{2}$,0.01089999999999991,eV/atom,
Na$_{6}$CdCl$_{8}$,4.0226,eV/atom,
GdAlZn,0.0,eV/atom,
VTe$_{2}$,0.002400000000000624,eV/atom,
HgHNO$_{4}$,1.5568,eV/atom,
BaEu$_{2}$O$_{4}$,0.0,eV/atom,
PrNb$_{5}$O$_{14}$,1.9449,eV/atom,
Re$_{2}$W$_{3}$C,0.0,eV/atom,
Ti$_{2}$InNi$_{2}$,0.0,eV/atom,
Ba$_{4}$GaN$_{3}$O,1.1839,eV/atom,
Sm(Re$_{2}$Si)$_{2}$,0.0,eV/atom,
Ta$_{7}$Fe$_{6}$,0.0,eV/atom,
BrF$_{3}$,2.1576,eV/atom,FBr(F)F
Ba$_{2}$Ni$_{3}$F$_{10}$,4.8298000000000005,eV/atom,
Cu(CO$_{2}$)$_{2}$,0.0,eV/atom,
P$_{2}$HNF$_{4}$,4.8761,eV/atom,
RbCu$_{4}$Se$_{3}$,0.0,eV/atom,
K$_{2}$Cr$_{3}$(ClF$_{3}$)$_{2}$,2.3631,eV/atom,
CaF$_{2}$,6.2478,eV/atom,
KTi$_{2}$F$_{7}$,0.0,eV/atom,
Ag$_{3}$SNO$_{3}$,1.0637000000000003,eV/atom,
KZrPdF$_{7}$,0.6681,eV/atom,
Ti$_{3}$Rh$_{5}$,0.0,eV/atom,
KCoO$_{2}$,0.6725999999999999,eV/atom,
VH$_{16}$C$_{6}$N$_{6}$O$_{7}$F$_{2}$,2.3148,eV/atom,
Ca$_{2}$Al$_{2}$SiO$_{7}$,4.284800000000001,eV/atom,
GdCd,0.0,eV/atom,
YH$_{18}$C$_{3}$S$_{3}$(O$_{2}$F)$_{9}$,5.9427,eV/atom,
Ca$_{4}$Mn$_{3}$O$_{10}$,0.2972999999999999,eV/atom,
Y$_{5}$Mg$_{16}$Cu$_{5}$,0.0,eV/atom,
CdI$_{2}$,2.3663,eV/atom,
ReO$_{2}$F$_{3}$,3.4217,eV/atom,
ZrAl,0.0,eV/atom,
La$_{4}$Si$_{2}$S$_{3}$O$_{7}$,2.4924,eV/atom,
NpAs,0.0,eV/atom,
Cs$_{2}$NbAgS$_{4}$,2.2195,eV/atom,
Zr$_{2}$AlC,0.0,eV/atom,
BC$_{2}$N,1.661900000000001,eV/atom,
Ca$_{2}$Fe$_{2}$O$_{5}$,0.8683000000000001,eV/atom,
La(In$_{2}$Ni)$_{3}$,0.0,eV/atom,
Gd$_{2}$SnAu$_{2}$,0.0,eV/atom,
NaH$_{4}$ClO$_{2}$,4.923,eV/atom,
CoPNO$_{5}$,0.0,eV/atom,
La$_{3}$TiSb$_{5}$,0.0,eV/atom,
VTeO$_{4}$,1.5000999999999998,eV/atom,
Ca(BeP)$_{2}$,0.7366000000000001,eV/atom,
Co$_{23}$B$_{6}$,0.0,eV/atom,
K$_{3}$Ni$_{2}$F$_{7}$,4.6238,eV/atom,
NdMnAsO,0.08190000000000008,eV/atom,
Ge$_{2}$Os,0.0,eV/atom,
LuInAu,0.0,eV/atom,
Ho(Al$_{2}$Fe)$_{4}$,0.0,eV/atom,
CdGeP$_{2}$,0.6455000000000002,eV/atom,
Na$_{3}$MgC$_{2}$ClO$_{6}$,4.1751,eV/atom,
Sb$_{2}$O$_{5}$,0.8138000000000005,eV/atom,
CdI$_{2}$,2.4063999999999997,eV/atom,
Sr(SiPd)$_{2}$,0.0,eV/atom,
Sr(GaO$_{2}$)$_{2}$,2.6751,eV/atom,
PH$_{8}$C$_{2}$SNO$_{2}$,4.5667,eV/atom,
Ba$_{2}$SnO$_{4}$,2.4421999999999997,eV/atom,
ScTlSe$_{2}$,0.6128,eV/atom,
PrGe$_{5}$,0.0,eV/atom,
K$_{2}$CuSb,1.1110999999999998,eV/atom,
Ho$_{2}$NiGe$_{6}$,0.0,eV/atom,
Ba$_{3}$NaTaO$_{6}$,3.4045,eV/atom,
Y$_{7}$FeI$_{12}$,0.0,eV/atom,
Ce$_{2}$BiN,0.0,eV/atom,
Hg$_{2}$SeO$_{5}$,0.7264,eV/atom,
CaU$_{2}$(PO$_{2}$)$_{2}$,0.0,eV/atom,
La$_{5}$Sn$_{3}$,0.0,eV/atom,
LaAl$_{5}$Ni$_{2}$,0.0,eV/atom,
Y(CoGe)$_{2}$,0.0,eV/atom,
SnPCl$_{9}$,2.4621,eV/atom,
K$_{2}$Cr$_{4}$O$_{13}$,1.8398999999999999,eV/atom,
CaCuO$_{2}$,0.0,eV/atom,
CeSi$_{3}$Os,0.0,eV/atom,
TlFeBr$_{4}$,1.0383,eV/atom,
Ce$_{2}$Co$_{17}$,0.0,eV/atom,
Bi$_{2}$S,0.0,eV/atom,
BaU$_{2}$O$_{7}$,2.0533,eV/atom,
MgAu$_{3}$,0.0,eV/atom,
CsK$_{4}$TlO$_{4}$,1.8162,eV/atom,
Na$_{5}$InTe$_{4}$,1.2161,eV/atom,
SrIn$_{2}$Ir,0.0,eV/atom,
Ti$_{4}$Si$_{7}$Ni$_{4}$,0.0,eV/atom,
ErSe,0.0,eV/atom,
Tb$_{3}$SnC,0.0,eV/atom,
NbC,0.0,eV/atom,
Er$_{2}$(SeO$_{3}$)$_{3}$,3.9484999999999997,eV/atom,
LiYSi,0.0,eV/atom,
Ca(BO$_{2}$)$_{2}$,6.020300000000001,eV/atom,
KYb$_{2}$F$_{7}$,0.0,eV/atom,
NdOs$_{2}$,0.0,eV/atom,
DySi$_{2}$Ni,0.0,eV/atom,
SrCd$_{2}$,0.0,eV/atom,
Ba$_{7}$B$_{4}$Se$_{13}$,2.1147,eV/atom,
BaZrSe$_{3}$,0.038000000000000256,eV/atom,
Hf$_{2}$SnC,0.0,eV/atom,
Be$_{4}$TeO$_{7}$,1.2806999999999995,eV/atom,
K$_{4}$Cu$_{3}$As$_{4}$(HO$_{8}$)$_{2}$,0.5323,eV/atom,
Li(CO)$_{2}$,2.2184,eV/atom,
Ce$_{2}$P$_{3}$Au,0.0,eV/atom,
SrGe$_{3}$Ir,0.0,eV/atom,
Er$_{2}$Ti$_{2}$O$_{7}$,2.7016,eV/atom,
BaAs$_{2}$,0.41490000000000027,eV/atom,
DyAsPd,0.03169999999999984,eV/atom,
Gd$_{2}$(MoO$_{4}$)$_{3}$,3.234,eV/atom,
CaCu(Si$_{2}$O$_{5}$)$_{2}$,0.8497999999999997,eV/atom,
Pb$_{3}$SeO$_{5}$,2.4614000000000003,eV/atom,
TmTaO$_{4}$,4.1068,eV/atom,
LiAuI$_{4}$,0.7374,eV/atom,
Nd$_{3}$SeBrN$_{2}$,1.2121999999999997,eV/atom,
ThB$_{12}$,0.0,eV/atom,
Cs$_{3}$In$_{2}$Cl$_{9}$,3.4583999999999997,eV/atom,
IN$_{2}$O$_{4}$F$_{5}$,1.4645000000000001,eV/atom,O=NO[N+](=O)[O-].FI(F)(F)(F)F
Tb$_{4}$(FeB$_{2}$)$_{3}$,0.0,eV/atom,
NdSiIr,0.0,eV/atom,
Zr$_{2}$ZnAg$_{2}$F$_{14}$,0.31889999999999996,eV/atom,
Ca$_{2}$Ni$_{7}$P$_{4}$,0.029600000000000293,eV/atom,
H$_{2}$SO$_{4}$,6.0968,eV/atom,O=S(=O)(O)O
ErH$_{2}$,0.0,eV/atom,
Ba$_{3}$NaBiO$_{6}$,1.9255,eV/atom,
Li(TiSe$_{2}$)$_{3}$,0.0,eV/atom,
TlBO$_{2}$,3.0162999999999993,eV/atom,
Ag$_{2}$CO$_{3}$,0.7414000000000003,eV/atom,
ReSbOF$_{9}$,1.0116999999999998,eV/atom,
P$_{3}$H$_{18}$OsC$_{6}$(SO)$_{6}$,0.22960000000000003,eV/atom,
SrTl$_{2}$,0.0,eV/atom,
V$_{3}$HPb$_{5}$O$_{13}$,2.8577999999999997,eV/atom,
TiS$_{2}$,0.0,eV/atom,
EuH$_{4}$S$_{2}$NO$_{8}$,7.000000000000339E-4,eV/atom,
BaBePO$_{4}$F,6.0427,eV/atom,
Si$_{3}$MoPt$_{2}$,0.0,eV/atom,
H$_{8}$C$_{3}$SN$_{2}$,3.5295,eV/atom,S=C(N)N(C)C
Li$_{2}$Sn$_{5}$,0.0,eV/atom,
Cs$_{3}$LaCl$_{6}$,4.5827,eV/atom,
K$_{2}$SrBe$_{2}$F$_{8}$,7.162599999999999,eV/atom,
Mo$_{3}$Pd$_{2}$N,0.0,eV/atom,
HoH$_{2}$ClO$_{2}$,4.7024,eV/atom,
NbAlRu$_{2}$,0.0,eV/atom,
BaMg(CO$_{3}$)$_{2}$,4.0847999999999995,eV/atom,
K$_{4}$CoMo$_{4}$O$_{15}$,0.0,eV/atom,
Li$_{7}$Ge$_{2}$,0.0,eV/atom,
CrFe$_{3}$,0.0,eV/atom,
Co$_{3}$O$_{4}$,0.0,eV/atom,
TbMn$_{2}$,0.0,eV/atom,
Bi$_{10}$(MoO$_{8}$)$_{3}$,2.7955,eV/atom,
Hf$_{2}$S,0.0,eV/atom,
HoSn$_{2}$,0.0,eV/atom,
TmAgGe,0.0,eV/atom,
MoSO$_{6}$,3.0618000000000003,eV/atom,
ScH$_{3}$Br$_{3}$N,3.1435000000000004,eV/atom,
ThSO,1.1139999999999999,eV/atom,
Co$_{3}$Si,0.0,eV/atom,
MoH$_{4}$O$_{5}$,1.7107999999999999,eV/atom,
W$_{2}$C,0.0,eV/atom,
Ti$_{3}$Pt$_{5}$,0.0,eV/atom,
NdNbO$_{4}$,3.6582,eV/atom,
MoSeS,0.6430999999999998,eV/atom,
TbH$_{2}$Br,1.6981999999999995,eV/atom,
MnC$_{5}$ClO$_{5}$,2.9387,eV/atom,O=C=[Mn](Cl)(=C=O)(=C=O)(=C=O)=C=O
Tb,0.0,eV/atom,
K$_{4}$TeP$_{4}$(HO$_{2}$)$_{10}$,3.584,eV/atom,
Na$_{2}$S$_{2}$O$_{3}$,4.2133,eV/atom,
MnSb,0.0,eV/atom,
Mg$_{3}$Cd,0.0,eV/atom,
SrCd,0.0,eV/atom,
La$_{5}$Sn$_{3}$Br,0.0,eV/atom,
LuPPt,0,eV/atom,
TbSn$_{2}$,0.0,eV/atom,
Na$_{4}$MoS$_{3}$O$_{14}$,2.7771999999999997,eV/atom,
Er$_{2}$Fe$_{3}$Si$_{5}$,0.0,eV/atom,
CaSb$_{2}$H$_{2}$F$_{14}$,4.8322,eV/atom,
FeTe,0.0,eV/atom,
VCo$_{3}$,0.0,eV/atom,
ZrTlCuS$_{3}$,0.6120999999999999,eV/atom,
ThS$_{2}$,1.0319000000000003,eV/atom,
Ca(ScS$_{2}$)$_{2}$,1.2884000000000002,eV/atom,
BeP$_{2}$(HO)$_{4}$,5.9704,eV/atom,
AlF$_{3}$,7.5154000000000005,eV/atom,
Th(FeP$_{3}$)$_{4}$,0.5338000000000012,eV/atom,
RuC$_{4}$(O$_{2}$F$_{3}$)$_{2}$,0.016199999999999992,eV/atom,
Rb$_{2}$V$_{4}$O$_{9}$,2.3314,eV/atom,
RbGeI$_{3}$,2.1987,eV/atom,
BaTlVO$_{4}$,3.5439,eV/atom,
CuBr,0.16990000000000016,eV/atom,
MgIn$_{2}$O$_{4}$,1.838,eV/atom,
CuWO$_{4}$,0.11249999999999982,eV/atom,
Ca$_{6}$Cr$_{2}$HN$_{6}$,0.0,eV/atom,
SrC$_{20}$,0.31179999999999986,eV/atom,[C].[C].[C].[C].[C].[C].[C].[C].[C].[C].[C].[C].[C].[C].[C].[C].[C].[C].[C].[C].[C].[C].[C].[C].[C].[C].[C].[C].[C].[C].[C].[C].[C].[C].[C].[C].[C].[C].[C].[C].[C].[C].[C].[C].[C].[C].[C].[C].[C].[C].[C].[C].[C].[C].[C].[C].[C].[C].[C].[C].[Sr].[Sr].[Sr]
Na$_{4}$Li$_{5}$(BO$_{3}$)$_{3}$,3.8255,eV/atom,
HgH$_{2}$C$_{6}$(NCl$_{2}$)$_{2}$,0.0,eV/atom,
Er$_{5}$Ir$_{2}$,0.0,eV/atom,
NdCuGe$_{2}$,0.0,eV/atom,
Ca$_{3}$SiBr$_{2}$,0.5895999999999999,eV/atom,
Zr$_{2}$Cr$_{4}$Si$_{5}$,0.0,eV/atom,
Ru(CO)$_{4}$,2.2135000000000002,eV/atom,
Nd$_{5}$Bi$_{3}$,0.0,eV/atom,
Ca$_{2}$CoSi$_{2}$O$_{7}$,3.0560000000000005,eV/atom,
Li$_{3}$Si$_{3}$Ag$_{2}$,0.0,eV/atom,
P$_{2}$Pb$_{4}$O$_{9}$,3.2074,eV/atom,
Na$_{4}$P$_{4}$H$_{2}$O$_{13}$,5.1224,eV/atom,
SrH$_{10}$(SO$_{4}$)$_{2}$,4.1852,eV/atom,[Sr+2].O=S([O-])([O-])=S.O.O.O.O.O
CrF$_{5}$,1.3584,eV/atom,
Be(HO)$_{2}$,5.4038,eV/atom,
MgPd$_{2}$,0.005599999999999383,eV/atom,
LiYbAlF$_{6}$,7.6899999999999995,eV/atom,
NdAs,0.0,eV/atom,
AlCr$_{2}$,0.007200000000000095,eV/atom,
CuH$_{12}$(NO)$_{6}$,0.0,eV/atom,
Na$_{3}$As,0.11930000000000018,eV/atom,
RbTm(PO$_{3}$)$_{4}$,5.4715,eV/atom,
LaPO$_{4}$,4.7024,eV/atom,
PrCoGe$_{2}$,0.0,eV/atom,
CsAlBP$_{2}$HO$_{9}$,5.2654,eV/atom,
Ge,0.0,eV/atom,
Ga$_{2}$PbSe$_{4}$,0.5207999999999999,eV/atom,
Mn$_{2}$B$_{4}$Mo,0.0,eV/atom,
Mn$_{4}$Be$_{3}$Ge$_{3}$SeO$_{12}$,2.2723000000000004,eV/atom,
TmAgPb,0.0,eV/atom,
Mg$_{4}$Zn$_{7}$,0.0,eV/atom,
TmFeO$_{3}$,1.1925999999999997,eV/atom,
MgSb$_{2}$H$_{2}$F$_{14}$,4.4907,eV/atom,
Zn$_{2}$PH$_{2}$CO$_{7}$,3.5229999999999997,eV/atom,
ThSi$_{2}$,0.0,eV/atom,
YGa$_{5}$Co,0.0,eV/atom,
Tb$_{2}$InNi$_{2}$,0.0,eV/atom,
CeH$_{3}$(CO$_{2}$)$_{3}$,0.0,eV/atom,[Ce+3].[H]C(=O)[O-].[H]C(=O)[O-].[H]C(=O)[O-]
K$_{2}$H$_{4}$PtC$_{6}$S$_{6}$(N$_{3}$O)$_{2}$,1.5465,eV/atom,
Ag$_{2}$F,0.0,eV/atom,
YIn$_{3}$,0.0,eV/atom,
Ca$_{5}$Ir,0.0,eV/atom,
KSm(PO$_{3}$)$_{4}$,5.2969,eV/atom,
UAlNi,0.0,eV/atom,
AsS,1.9426,eV/atom,
Cs$_{2}$AgBiBr$_{6}$,1.3586,eV/atom,
RbGa$_{3}$(P$_{3}$O$_{10}$)$_{2}$,4.786,eV/atom,
Tb(IO$_{3}$)$_{3}$,3.5406,eV/atom,
Ca$_{2}$SiO$_{4}$,3.3021,eV/atom,
Hg$_{3}$Bi$_{2}$(SCl$_{4}$)$_{2}$,2.7796000000000003,eV/atom,
TiOs$_{3}$,0.0,eV/atom,
ZrSiPd,0.1227999999999998,eV/atom,
TlCoCl$_{3}$,0.0,eV/atom,
LaGaO$_{3}$,3.3762999999999996,eV/atom,
YTiO$_{3}$,0.0,eV/atom,
Ba$_{9}$In$_{4}$,0.0,eV/atom,
In$_{3}$Pt$_{2}$,0.0,eV/atom,
Pr$_{2}$Ir$_{2}$O$_{7}$,0.0,eV/atom,
La$_{2}$MnCoO$_{6}$,0.02150000000000052,eV/atom,
BRh,0.0,eV/atom,
Ba$_{2}$Zn$_{7}$F$_{18}$,4.0535,eV/atom,
Hf$_{5}$Sc,0.0,eV/atom,
Yb$_{2}$GeSe$_{4}$,1.0972,eV/atom,
Bi$_{2}$O$_{3}$,0.0,eV/atom,
Ce$_{2}$HfSe$_{5}$,0.0,eV/atom,
AgH$_{2}$C$_{2}$N$_{3}$O,3.2954,eV/atom,
TbCoC,0.0,eV/atom,
Eu$_{4}$As$_{3}$,0.0,eV/atom,
HfNi$_{2}$Sn,0.0,eV/atom,
Mg$_{3}$Au,0.0,eV/atom,
K$_{2}$Mo$_{2}$O$_{7}$,3.4022,eV/atom,
K$_{3}$ZrHS(OF)$_{5}$,0.0,eV/atom,
TlN,0.0,eV/atom,
Ga$_{2}$P$_{2}$H$_{9}$NO$_{11}$,3.1938,eV/atom,
SrMgF$_{4}$,6.2299999999999995,eV/atom,
NdH$_{3}$(CO$_{2}$)$_{3}$,4.1895999999999995,eV/atom,[Nd+3].O=C[O-].O=C[O-].O=C[O-]
Nd$_{2}$(ZnGe$_{2}$)$_{3}$,0.0,eV/atom,
Tm$_{3}$PbC,0.0,eV/atom,
SrCuBi,0.0,eV/atom,
TlB$_{5}$O$_{8}$,5.1834,eV/atom,
Na$_{5}$NpO$_{6}$,1.3194,eV/atom,
ReTe$_{3}$Br$_{5}$,1.2721000000000002,eV/atom,
LiFeO$_{2}$,1.6720000000000002,eV/atom,
Na(SeO$_{3}$)$_{2}$,0.0,eV/atom,
NaNbO$_{3}$,3.8336,eV/atom,
FeS$_{4}$N$_{4}$Cl$_{3}$,0.9175,eV/atom,
Tb$_{3}$Ga$_{8}$Au$_{3}$,0.0,eV/atom,
CsBF$_{4}$,7.798399999999999,eV/atom,
NiAsSe,0.0,eV/atom,
CrAg(PS$_{3}$)$_{2}$,0.9260000000000002,eV/atom,
Sr$_{3}$(B$_{3}$Rh$_{4}$)$_{2}$,0.0,eV/atom,
YAl$_{3}$(BO$_{3}$)$_{4}$,5.351400000000001,eV/atom,
Nb$_{3}$B$_{4}$,0.0,eV/atom,
Tb$_{4}$Sb$_{6}$Rh$_{7}$,0.0,eV/atom,