formula,Property band_gap,Property band_gap units,Property SMILES
Ti(NCl)$_{3}$,2.318,eV/atom,
H$_{13}$(C$_{5}$N)$_{2}$,3.0987,eV/atom,N(C=1C=CC=CC1C)=C(NN(C)C)C(=NC=2C=CC=CC2C)NN(C)C
Sc$_{6}$ReO$_{12}$,0.08889999999999976,eV/atom,
ZnAu,0.0,eV/atom,
Na$_{3}$AlS$_{3}$,2.91,eV/atom,
Ba$_{3}$TiNb$_{4}$O$_{15}$,2.4151,eV/atom,
ThSiO$_{4}$,4.890000000000001,eV/atom,
HfSiTe,0.0,eV/atom,
NdH$_{12}$S$_{2}$NO$_{12}$,5.1190999999999995,eV/atom,
CsGa$_{2}$P$_{5}$O$_{16}$,4.6362,eV/atom,
K$_{2}$La$_{2}$Ti$_{3}$O$_{10}$,2.0435,eV/atom,
LaZnGa,0.0,eV/atom,
AlAgTe$_{2}$,1.0465999999999998,eV/atom,
YSi,0.0,eV/atom,
MgCo$_{2}$,0.0,eV/atom,
H$_{8}$C$_{3}$(NO)$_{4}$,3.3613999999999997,eV/atom,
MnSn,0.0,eV/atom,
SnSe,0.5159000000000002,eV/atom,
NdH$_{12}$(NO$_{5}$)$_{3}$,3.3038,eV/atom,
Na$_{2}$GeF$_{6}$,5.7858,eV/atom,
Ba$_{2}$YRuO$_{6}$,0.08999999999999986,eV/atom,
RbU$_{2}$H$_{5}$C$_{4}$O$_{15}$,2.1541,eV/atom,
TbZnSn$_{2}$,0.0,eV/atom,
K$_{2}$Mn(SnSe$_{3}$)$_{2}$,1.0268000000000002,eV/atom,
TmIr,0.0,eV/atom,
Rb$_{2}$Th(PSe$_{3}$)$_{3}$,1.37,eV/atom,
K$_{2}$Cd$_{2}$Te$_{3}$,1.3224,eV/atom,
NaNiIO$_{6}$,1.6893999999999998,eV/atom,
Y$_{3}$Ge$_{5}$,0.0,eV/atom,
Na$_{8}$N$_{3}$O,0.0,eV/atom,
LiF,8.7161,eV/atom,
Yb(Ni$_{2}$P)$_{2}$,0.0,eV/atom,
Eu(ZnSn)$_{2}$,0.0,eV/atom,
Cd(InTe$_{2}$)$_{2}$,0.8481000000000005,eV/atom,
Ca$_{2}$Ge,0.5756000000000001,eV/atom,
CrP,0.0,eV/atom,
LiAlGeO$_{4}$,3.1826,eV/atom,
Na$_{17}$Al$_{5}$O$_{16}$,2.4421,eV/atom,
NdCd$_{2}$,0.0,eV/atom,
Ba$_{2}$YNbO$_{6}$,2.8514,eV/atom,
BaCa$_{4}$(CoN$_{2}$)$_{2}$,0.19519999999999982,eV/atom,
LiAl(Si$_{2}$O$_{5}$)$_{2}$,5.3223,eV/atom,
Mg$_{5}$Si$_{6}$,0.0,eV/atom,
Ba$_{2}$Hg$_{3}$(PdO$_{2}$)$_{7}$,0.0,eV/atom,
CeLuS$_{3}$,0.0,eV/atom,
CdBrO,0.0,eV/atom,
SiTePt,0.3365999999999998,eV/atom,
CaAg,0.0,eV/atom,
CrCoSi,0.0,eV/atom,
LaRhO$_{3}$,0.5939999999999994,eV/atom,
CsBC$_{3}$NOF$_{9}$,2.5838,eV/atom,
MgSeO$_{4}$,2.8689999999999998,eV/atom,
Na$_{6}$Mg(SO$_{4}$)$_{4}$,5.2539,eV/atom,
SnNF$_{3}$,0.5917,eV/atom,
Ba$_{3}$SrNb$_{2}$O$_{9}$,3.2346,eV/atom,
LiNb$_{3}$Cl$_{8}$,0.9318,eV/atom,
EuGa$_{3}$Pd,0.0,eV/atom,
AlSiTe$_{3}$,1.2504,eV/atom,
KCrO$_{2}$,2.9456,eV/atom,
ErNiO$_{3}$,0.0,eV/atom,
BeH$_{4}$NF$_{3}$,6.0878,eV/atom,
SnP,0.0,eV/atom,
Li(FeGe)$_{6}$,0.0,eV/atom,
NaYSiO$_{4}$,4.2827,eV/atom,
Cu$_{3}$Sb,0,eV/atom,
Cs$_{2}$S$_{3}$,1.3989999999999998,eV/atom,
Ba$_{2}$SmReO$_{6}$,0.0,eV/atom,
Ba$_{3}$Bi$_{2}$(PO$_{4}$)$_{4}$,3.7865,eV/atom,
VO$_{2}$,0.9163999999999999,eV/atom,
La(GePt)$_{2}$,0.0,eV/atom,
PH$_{6}$SN$_{3}$,4.177700000000001,eV/atom,
Tb(FeGe)$_{2}$,0.0,eV/atom,
Rb$_{2}$NaAl$_{2}$(PO$_{4}$)$_{3}$,4.6181,eV/atom,
SrSi$_{6}$,0.0,eV/atom,
Nd$_{3}$CuSiSe$_{7}$,1.3323,eV/atom,
Al$_{8}$C$_{3}$N$_{4}$,0.1880999999999995,eV/atom,
Nb$_{3}$SnS$_{6}$,0.0,eV/atom,
Sr$_{4}$Br$_{6}$O,4.2196,eV/atom,
Zn(InS$_{2}$)$_{2}$,1.1222000000000003,eV/atom,
GdMg$_{2}$Ag,0.0012999999999996348,eV/atom,
Ba$_{6}$Nb$_{2}$Ir(ClO$_{6}$)$_{2}$,0.0,eV/atom,
PO$_{2}$,4.5682,eV/atom,
RbVCl$_{3}$,0.0,eV/atom,
Sr$_{2}$Rh,0.0,eV/atom,
KTl(CN)$_{4}$,5.5138,eV/atom,
CaSi$_{2}$,0.0,eV/atom,
LiCa$_{4}$(BN$_{2}$)$_{3}$,2.1934,eV/atom,
CuH$_{6}$(NO)$_{4}$,0.18490000000000006,eV/atom,
Cu$_{3}$Sn,0.0,eV/atom,
FeP$_{3}$(H$_{2}$O$_{3}$)$_{3}$,2.7925,eV/atom,[Fe+3].O=P([O-])O.O=P([O-])O.O=P([O-])O
DyNiC$_{2}$,0.0,eV/atom,
Cu(BrN)$_{2}$,0.22699999999999998,eV/atom,
KNa$_{7}$Pb$_{2}$O$_{7}$,0.8484,eV/atom,
CsCa(NO$_{2}$)$_{3}$,2.6181,eV/atom,
GdBiPt,0.0,eV/atom,
K$_{3}$Eu(PO$_{4}$)$_{2}$,0.0,eV/atom,
K$_{3}$AlO$_{3}$,2.8977,eV/atom,
Gd(BOs)$_{2}$,0.0,eV/atom,
SmP$_{4}$HO$_{12}$,5.7384,eV/atom,
La$_{2}$O$_{3}$,3.5319000000000003,eV/atom,
In$_{3}$SnI$_{5}$,2.1658,eV/atom,
CaC$_{2}$,1.7534999999999998,eV/atom,
La(PdO$_{2}$)$_{2}$,0.0,eV/atom,
DyMnGa,0.0,eV/atom,
GdP,0.0,eV/atom,
K$_{2}$InH$_{2}$Cl$_{5}$O,3.4497999999999998,eV/atom,
Be$_{2}$V,0.0,eV/atom,
CoSb$_{2}$Br$_{2}$O$_{3}$,1.2096,eV/atom,
NaScO$_{2}$,3.9799999999999995,eV/atom,
CeAgPb,0.0,eV/atom,
NdNi$_{4}$B,0.0,eV/atom,
CaAsPd,0.16080000000000005,eV/atom,
CsEu$_{2}$I$_{5}$,1.407,eV/atom,
VGaFeCo,0.0,eV/atom,
Cs$_{2}$PbO$_{3}$,1.3911,eV/atom,
AlBiCl$_{6}$,3.7506000000000004,eV/atom,
SrTiS$_{3}$,0.0,eV/atom,
NaHo$_{4}$Ge$_{2}$O$_{11}$,0.6627000000000001,eV/atom,
BaVSe$_{3}$,0.0,eV/atom,
Fe(NF$_{2}$)$_{3}$,1.5557,eV/atom,
Cs$_{2}$LiBr$_{3}$,4.3309,eV/atom,
Zn$_{3}$(BO$_{3}$)$_{2}$,2.6968,eV/atom,
Tb(CoSi)$_{2}$,0.0,eV/atom,
BaNb$_{4}$O$_{6}$,0.0,eV/atom,
SrH$_{2}$Br$_{2}$O$_{7}$,4.0296,eV/atom,
TiO,0.0,eV/atom,
Ba$_{2}$H$_{6}$Pt,1.7507,eV/atom,
CaO$_{2}$,0.0,eV/atom,
TaPS,0.0,eV/atom,
B$_{4}$CCl$_{6}$O,4.0675,eV/atom,
HfBe,0.0,eV/atom,
LuNbO$_{4}$,3.3963000000000005,eV/atom,
CaBi$_{2}$(CO$_{4}$)$_{2}$,1.4708999999999994,eV/atom,[Ca+2].[Bi+3].[Bi+3].O=C([O-])OC([O-])=[O+](=O)[O-].O=C([O-])OC([O-])=[O+](=O)[O-].O=C([O-])OC([O-])=[O+](=O)[O-].O=C([O-])OC([O-])=[O+](=O)[O-]
MnPt$_{3}$,0.0,eV/atom,
SbSI,1.6354000000000002,eV/atom,
NbClF$_{8}$,3.263,eV/atom,
DySiPt,0.0,eV/atom,
Ce$_{2}$CdCu$_{2}$,0.0,eV/atom,
Sr$_{2}$MoO$_{4}$,0,eV/atom,
U(HO)$_{8}$,2.1088,eV/atom,
MnGaGe,0.0,eV/atom,
PuGaRh,0.0,eV/atom,
CsNiBr$_{3}$,0.8212,eV/atom,
AgClO$_{2}$,0.9478000000000002,eV/atom,
SrTb$_{2}$Fe$_{2}$O$_{7}$,1.5329000000000002,eV/atom,
Cs$_{5}$SiAs$_{3}$,0.8105000000000002,eV/atom,
Na$_{2}$SiO$_{3}$,3.8657000000000004,eV/atom,
Mn$_{3}$Bi,0.0,eV/atom,
DyCdGa,0.0,eV/atom,
Cs$_{2}$Hg$_{27}$,0.0,eV/atom,
Yb$_{6}$Fe$_{23}$,0.0,eV/atom,
DyRh$_{5}$,0.0,eV/atom,
K$_{2}$Ge$_{2}$Se$_{5}$,1.8025,eV/atom,
Nb$_{6}$Fe$_{16}$Si$_{7}$,0.0,eV/atom,
UO$_{3}$,1.4882,eV/atom,
NaMnPO$_{4}$,3.051,eV/atom,
Ba$_{2}$Mg$_{3}$F$_{10}$,6.8919999999999995,eV/atom,
Tm(MnSn)$_{6}$,0.0,eV/atom,
ZnS,2.0275,eV/atom,
BaBi$_{3}$,0.0,eV/atom,
RbGe,0.0,eV/atom,
V$_{2}$Co$_{2}$O$_{7}$,1.8291000000000002,eV/atom,
TmMnO$_{3}$,0.42059999999999986,eV/atom,
K$_{2}$Na(B$_{3}$O$_{5}$)$_{3}$,5.3008999999999995,eV/atom,
EuAsO$_{4}$,0.0,eV/atom,
ScP$_{3}$(HO$_{2}$)$_{6}$,5.3068,eV/atom,[Sc+3].[Sc+3].O=P([O-])([O-])O.O=P([O-])([O-])O.O=P([O-])([O-])O
NaAlSi$_{3}$O$_{8}$,4.8641000000000005,eV/atom,
Zr(MnSn)$_{6}$,0.0,eV/atom,
RbCr$_{5}$Se$_{8}$,0.0035000000000002807,eV/atom,
TiPt,0.0,eV/atom,
Li$_{8}$CoO$_{6}$,1.0757999999999999,eV/atom,
TbSnRh,0.0,eV/atom,
CsTbZnTe$_{3}$,1.3716999999999997,eV/atom,
Th(NiSn)$_{2}$,0.0,eV/atom,
AgN,0.0,eV/atom,
UTl$_{2}$(TeO$_{4}$)$_{2}$,1.8321999999999998,eV/atom,
Ba$_{6}$Cu$_{11}$F$_{34}$,0.2531,eV/atom,
KNdGeS$_{4}$,2.3612,eV/atom,
Bi,0.0,eV/atom,
PdSe$_{2}$,0.5105,eV/atom,
UMnO$_{4}$,0.9722,eV/atom,
MnMoO$_{4}$,1.4039999999999995,eV/atom,
Rb$_{2}$Al$_{2}$Si$_{3}$O$_{10}$,4.6713000000000005,eV/atom,
Mg$_{2}$Cu$_{3}$Si,0.0,eV/atom,
LiSmSn$_{2}$,0.0,eV/atom,
RbC$_{8}$,0.0,eV/atom,
BiS$_{2}$,1.0690999999999997,eV/atom,
Th$_{5}$Sn$_{3}$,0.0,eV/atom,
Te,0.0,eV/atom,
Li$_{4}$PbO$_{4}$,1.4367,eV/atom,
V$_{2}$Pb$_{4}$O$_{9}$,2.8596999999999997,eV/atom,
Na$_{4}$SiSe$_{4}$,2.1322,eV/atom,
Ce(CoSi)$_{2}$,0.0,eV/atom,
MgV$_{2}$O$_{4}$,0.0,eV/atom,
K$_{3}$CuO$_{2}$,1.5215999999999998,eV/atom,
Nb$_{5}$Ni,0.0,eV/atom,
SmTlS$_{2}$,2.3832,eV/atom,
SiO$_{2}$,6.180999999999999,eV/atom,
Ho$_{3}$Ni$_{2}$,0.0,eV/atom,
Sc$_{3}$Re$_{2}$Si$_{3}$,0.004000000000000448,eV/atom,
AgSbTe$_{6}$S$_{16}$(OF$_{5}$)$_{6}$,0.8025,eV/atom,
Zr$_{2}$Be$_{17}$,0.0,eV/atom,
GeTe,0.5965000000000007,eV/atom,
NdTe$_{2}$BrO$_{5}$,2.3955,eV/atom,
ScC,0.0,eV/atom,
EuNi$_{5}$,0.0,eV/atom,
Ba$_{3}$Na$_{2}$Cr$_{4}$F$_{20}$,3.5814,eV/atom,
K$_{2}$Cr$_{3}$O$_{10}$,2.0045,eV/atom,
TmH$_{16}$C$_{4}$N$_{11}$O$_{13}$,3.2094,eV/atom,
BaTi$_{2}$(P$_{2}$O$_{7}$)$_{2}$,0.0,eV/atom,
GdScSi,0.0,eV/atom,
Zr(Se$_{2}$Cl$_{3}$)$_{2}$,1.3186,eV/atom,
Li$_{2}$ZnSn,0.0,eV/atom,
Ba(RuO$_{2}$)$_{6}$,0.0,eV/atom,
BaYMn$_{2}$O$_{6}$,0,eV/atom,
KCdAs,0.17270000000000008,eV/atom,
K$_{2}$PdF$_{4}$,1.8732000000000002,eV/atom,
Ti$_{2}$CdO$_{6}$,0.0,eV/atom,
CoAs$_{2}$,0.0,eV/atom,
Zn$_{11}$Ni$_{2}$,0.0,eV/atom,
Hf$_{2}$Pt$_{3}$,0.0,eV/atom,
Ge(BiTe$_{2}$)$_{2}$,0.8887,eV/atom,
Rb$_{3}$Sm(PS$_{4}$)$_{2}$,2.1861,eV/atom,
PrB$_{4}$,0.0,eV/atom,
LaCo$_{5}$,0.0,eV/atom,
K$_{4}$ErP$_{6}$H$_{6}$ClO$_{21}$,4.8671,eV/atom,
La(SiIr)$_{2}$,0.0,eV/atom,
W$_{2}$NCl$_{9}$,1.7811,eV/atom,
S$_{2}$N,1.6967999999999999,eV/atom,
PAuO$_{4}$,1.5854000000000001,eV/atom,
BiP$_{4}$HO$_{12}$,4.9882,eV/atom,
Hg$_{3}$Se$_{4}$O$_{5}$,1.8293,eV/atom,
Ca$_{28}$Ga$_{11}$,0.0,eV/atom,
Yb(Ga$_{4}$Co)$_{2}$,0.0,eV/atom,
Sr$_{2}$FeO$_{3}$,1.2778999999999998,eV/atom,
RbEr$_{2}$Cu$_{3}$S$_{5}$,1.4910000000000005,eV/atom,
Na$_{2}$BeH$_{4}$,4.5899,eV/atom,
K$_{2}$NbCl$_{6}$,0.0,eV/atom,
SrCr$_{10}$O$_{15}$,0.0,eV/atom,
YbInPd,0.0,eV/atom,
CaIn$_{2}$Pd,0.0,eV/atom,
TiAu,0.0,eV/atom,
As$_{2}$Se$_{3}$,1.4392,eV/atom,
CuCl$_{2}$,0.033299999999999996,eV/atom,
Sr$_{3}$P$_{4}$,0.8855000000000004,eV/atom,
C$_{5}$N$_{4}$,5.8856,eV/atom,N#CC(C#N)(C#N)C#N
Li$_{3}$Nd$_{2}$(BO$_{3}$)$_{3}$,4.7523,eV/atom,
Sc$_{2}$O$_{3}$,3.4806,eV/atom,
NaSr$_{2}$AlP$_{3}$,0.31220000000000026,eV/atom,
Ca$_{4}$Al$_{6}$SO$_{16}$,4.6683,eV/atom,
Cs$_{2}$GeO$_{3}$,3.0623,eV/atom,
Dy(SiIr)$_{2}$,0.0,eV/atom,
BMo,0.0,eV/atom,
Ho$_{5}$CoSb$_{2}$,0.0,eV/atom,
Ca$_{5}$Zn$_{3}$,0.0,eV/atom,
LaPO$_{4}$,4.6606000000000005,eV/atom,
Ba$_{3}$(CrS$_{3}$)$_{2}$,0.6307999999999998,eV/atom,
Mg$_{2}$VBiO$_{6}$,3.3647,eV/atom,
TbTc$_{2}$,0.0,eV/atom,
PuNi$_{2}$,0.0,eV/atom,
LiScS$_{2}$,1.4856999999999996,eV/atom,
Rb$_{2}$PtF$_{6}$,2.6425,eV/atom,
CuH$_{12}$C$_{5}$S$_{4}$N,1.1785,eV/atom,
LuZn$_{12}$,0.0,eV/atom,
K$_{4}$SiO$_{4}$,2.9391,eV/atom,
CeSiNO$_{2}$,0.0,eV/atom,
CaTi$_{4}$(CuO$_{4}$)$_{3}$,0.0,eV/atom,
Mn$_{2}$Si(H$_{2}$O$_{3}$)$_{2}$,2.299,eV/atom,
NaTiP$_{2}$O$_{7}$,0.06989999999999963,eV/atom,
Pr$_{13}$Zn$_{58}$,0.0,eV/atom,
P$_{2}$Pd,0.4579000000000004,eV/atom,
As$_{2}$Cl$_{3}$OF$_{5}$,3.3000000000000003,eV/atom,
V$_{2}$B$_{3}$,0.0,eV/atom,
AgBr,0.7,eV/atom,
K$_{3}$UO$_{2}$F$_{5}$,2.7138999999999998,eV/atom,
RbCaCO$_{3}$F,4.2981,eV/atom,
Ho(AlC)$_{3}$,0.0,eV/atom,
SrGa$_{3}$Pd,0.0,eV/atom,
Rb$_{3}$Zr$_{2}$P$_{5}$S$_{18}$,1.9752999999999998,eV/atom,
Mg$_{2}$Ni$_{3}$P,0.0,eV/atom,
NdGePd$_{2}$,0.0,eV/atom,
Ba$_{2}$SnS$_{4}$,2.3103,eV/atom,
BaDyFe$_{2}$O$_{5}$,0.8398999999999996,eV/atom,
Ba$_{7}$Cu$_{3}$H$_{17}$,1.4593999999999998,eV/atom,
SbCNCl$_{5}$,1.9434999999999998,eV/atom,
Pr$_{2}$Fe$_{2}$Si$_{2}$C,0.0,eV/atom,
WO$_{3}$,1.3459999999999999,eV/atom,
Ca$_{3}$B$_{6}$(H$_{4}$O$_{5}$)$_{4}$,5.3889,eV/atom,
Ti$_{3}$Zn$_{2}$O$_{8}$,2.5854,eV/atom,
AsPd$_{3}$Pb$_{2}$,0.0,eV/atom,
ErInPd$_{2}$,0.0,eV/atom,
Hg$_{6}$BiSb$_{4}$Br$_{7}$,1.0223999999999998,eV/atom,
K$_{4}$V$_{5}$CdClO$_{15}$,2.3296,eV/atom,
N$_{2}$O,3.3292,eV/atom,
FePO$_{4}$,2.7015000000000002,eV/atom,
Li$_{2}$InPd,0.0,eV/atom,
LiLa$_{4}$CuO$_{8}$,0.7702,eV/atom,
Na$_{2}$SiF$_{6}$,6.9887999999999995,eV/atom,
NaTaO$_{3}$,2.6172000000000004,eV/atom,
SmCoC$_{2}$,0.0029000000000003467,eV/atom,
Cs$_{2}$TcF$_{6}$,1.8717,eV/atom,
Ba$_{2}$H$_{6}$Ru,1.8699000000000001,eV/atom,
PrTe$_{2}$,0.0,eV/atom,
BaNaH$_{3}$Pd,1.4378000000000002,eV/atom,
LuZrSb,0.0,eV/atom,
SrSi$_{2}$,0.0,eV/atom,
ZnS,2.0218000000000003,eV/atom,
PrRe$_{2}$,0.0,eV/atom,
BaSi$_{2}$(BO$_{4}$)$_{2}$,5.5233,eV/atom,
GaCl$_{2}$,3.8516,eV/atom,
HoCdNi$_{4}$,0.0,eV/atom,
Li$_{7}$NiN$_{4}$,0.0,eV/atom,
KInSnSe$_{4}$,1.3747000000000003,eV/atom,
Er(Mo$_{3}$Se$_{4}$)$_{2}$,0.0,eV/atom,
AgCN$_{3}$O$_{2}$,2.4484000000000004,eV/atom,
NaCuTe,0.6331999999999995,eV/atom,
Zr$_{5}$Ge$_{3}$,0.0,eV/atom,
Gd(SiOs)$_{2}$,0.0026999999999999247,eV/atom,
Al$_{2}$ZnS$_{4}$,2.4939,eV/atom,
Pr$_{2}$Ni$_{2}$I,0.0,eV/atom,
Cs$_{2}$Li$_{3}$GaO$_{4}$,3.6593,eV/atom,
Ba$_{3}$WN$_{4}$,1.5479000000000003,eV/atom,
PrCu$_{3}$(RuO$_{3}$)$_{4}$,0.0,eV/atom,
Cu(RhS$_{2}$)$_{2}$,0.0,eV/atom,
Ca(GePt)$_{2}$,0.0,eV/atom,
GdFeAsO,0.0,eV/atom,
SiO$_{2}$,2.5295,eV/atom,
AlH$_{3}$NCl$_{3}$,5.1434,eV/atom,
Dy$_{2}$Te$_{5}$O$_{13}$,2.9867,eV/atom,
NdMnPO,0.06799999999999962,eV/atom,
NaMgH$_{3}$,3.103,eV/atom,
MgSiO$_{3}$,4.411099999999999,eV/atom,
Pr$_{5}$Ru$_{2}$,0.0,eV/atom,
Rb$_{2}$NaMnF$_{6}$,1.5342,eV/atom,
Ca$_{5}$Si$_{2}$C$_{2}$O$_{13}$,4.790699999999999,eV/atom,
ZrCo,0.0,eV/atom,
Al(NF$_{2}$)$_{3}$,0.0,eV/atom,
BaMgF$_{4}$,6.8004999999999995,eV/atom,
KTbGeS$_{4}$,2.4464,eV/atom,
K$_{2}$LiInAs$_{2}$,0.6193,eV/atom,
Mn$_{2}$CoGe,0.0,eV/atom,
CaCdPd,0.0,eV/atom,
Hf$_{3}$(NiGe)$_{4}$,0.0,eV/atom,
Cu$_{3}$P$_{15}$I$_{2}$,1.0110000000000001,eV/atom,
BaSr$_{2}$Mg(SiO$_{4}$)$_{2}$,4.759,eV/atom,
Cs$_{3}$Te$_{17}$Mo$_{15}$,0.0,eV/atom,
GaBN$_{2}$,3.140900000000001,eV/atom,
CaC$_{2}$,1.6643999999999997,eV/atom,
HfCuGe,0.0,eV/atom,
ZnSnO$_{3}$,1.3277999999999999,eV/atom,
CuSb(MoO$_{4}$)$_{2}$,0.6344000000000003,eV/atom,
DyGa$_{3}$Ru,0.0,eV/atom,
UGeSe,0.0,eV/atom,
Th$_{2}$Al$_{7}$,0.0,eV/atom,
ErGa,0.0,eV/atom,
Ce(LuS$_{2}$)$_{3}$,0.0,eV/atom,
Sm(GeRu)$_{2}$,0.0,eV/atom,
Sc$_{2}$Mn$_{2}$O$_{7}$,1.0488999999999997,eV/atom,
Pr$_{2}$Te$_{4}$O$_{11}$,3.2952,eV/atom,
HoSiPt,0.0,eV/atom,
ScBPd$_{3}$,0.0,eV/atom,
Ho$_{3}$InC,0.0,eV/atom,
Pr$_{2}$Sn$_{2}$O$_{7}$,2.6358000000000006,eV/atom,
TbSi$_{3}$Ir,0.0,eV/atom,
H$_{9}$C$_{3}$S$_{2}$BrN$_{2}$,3.3436999999999997,eV/atom,
Cs$_{3}$Sb$_{2}$Cl$_{9}$,2.3937,eV/atom,
HoFeC$_{2}$,0.0,eV/atom,
NaAlCdF$_{6}$,4.6080000000000005,eV/atom,
GdScS$_{3}$,1.1101999999999999,eV/atom,
Cu$_{2}$S,0.0,eV/atom,
Ca$_{5}$Sb$_{3}$,0.0,eV/atom,
CaAl$_{2}$O$_{4}$,4.190300000000001,eV/atom,
Rb$_{3}$Nb$_{2}$S$_{11}$,1.5100999999999998,eV/atom,
Tl$_{4}$SnS$_{3}$,0.6793999999999993,eV/atom,
LaPb$_{6}$BrO$_{7}$,1.9304999999999999,eV/atom,
LiGaCl$_{3}$,3.6888,eV/atom,
Ba(PN$_{2}$)$_{2}$,3.9118000000000004,eV/atom,
Ce$_{4}$Si$_{2}$Se$_{3}$O$_{7}$,0.0011999999999998678,eV/atom,
CrCo$_{3}$,0.0,eV/atom,
KNaGdTaO$_{5}$,2.7073,eV/atom,
In$_{2}$Bi$_{4}$Pb$_{4}$S$_{13}$,1.1913,eV/atom,
EuCo$_{8}$P$_{5}$,0.0,eV/atom,
Ba$_{2}$CaMgAl$_{2}$F$_{14}$,7.1836,eV/atom,
SiO$_{2}$,5.6423,eV/atom,
ErAg(PSe$_{3}$)$_{2}$,1.7583000000000002,eV/atom,
Li$_{5}$Sn$_{2}$,0.1448999999999998,eV/atom,
Ag$_{3}$AsS$_{3}$,1.6989,eV/atom,
Gd$_{2}$CBr,0.0,eV/atom,
K$_{2}$PtC$_{2}$,0.9817,eV/atom,
LaAl$_{4}$,0.0,eV/atom,
Zr$_{6}$FeCl$_{14}$,1.446,eV/atom,
LuSb,0.0,eV/atom,
RbMnCl$_{3}$O$_{2}$,0.24320000000000008,eV/atom,
LaOs$_{2}$,0.0,eV/atom,
Er$_{4}$Si$_{9}$Ir$_{13}$,0.0,eV/atom,
SmCo(BO$_{2}$)$_{5}$,3.1130999999999998,eV/atom,
PrN,1.5598,eV/atom,
ZnS,2.0223,eV/atom,
Pr$_{4}$RuI$_{5}$,3.9999999999995595E-4,eV/atom,
AlSiHO$_{4}$,5.5699,eV/atom,
Hf$_{3}$Cu$_{8}$,0.02090000000000014,eV/atom,
Nd$_{3}$Al$_{11}$,0.0,eV/atom,
ZnH$_{4}$(NO$_{4}$)$_{2}$,3.314,eV/atom,[Zn+2].O=[N+]([O-])[O-].O=[N+]([O-])[O-].O.O
USiPd,0.0,eV/atom,
Ni(AuF$_{4}$)$_{2}$,1.6437,eV/atom,
MgB$_{3}$H$_{15}$O$_{13}$,5.0784,eV/atom,
Sr$_{7}$(H$_{6}$Cl)$_{2}$,3.8615000000000004,eV/atom,
Nd(SiPt)$_{2}$,0.0,eV/atom,
Nd$_{3}$Si$_{2}$S$_{8}$I,2.5479999999999996,eV/atom,
KCeSiS$_{4}$,0.13089999999999957,eV/atom,
Ag$_{2}$Pb$_{8}$Cl$_{4}$O$_{7}$,2.0909999999999997,eV/atom,
Nd(SiRh)$_{2}$,0.0,eV/atom,
KCd$_{4}$As$_{3}$,0.0,eV/atom,
Nd$_{4}$MnSe$_{6}$O,1.9933,eV/atom,
NaHO,2.8228,eV/atom,
FeP$_{2}$HO$_{7}$,2.4135,eV/atom,[Fe+3].O=P([O-])([O-])OP(=O)([O-])O
CaP,0.3443000000000005,eV/atom,
RbCrF$_{5}$,1.6165,eV/atom,
LuMnO$_{3}$,0.0,eV/atom,
Pr(SiNi)$_{2}$,0.0,eV/atom,
TbB$_{2}$Ru$_{3}$,0.0,eV/atom,
K$_{4}$GeS$_{4}$,2.7133,eV/atom,
HIO$_{3}$,3.213,eV/atom,
Cs$_{4}$Sn$_{23}$,0.0,eV/atom,
LiRuF$_{6}$,1.0756000000000001,eV/atom,
Yb$_{3}$InC,0.0,eV/atom,
LiPd$_{2}$Pb,0.0,eV/atom,
La$_{2}$H$_{5}$,0.0,eV/atom,
CsAuSe$_{3}$,1.0418999999999998,eV/atom,
TiH$_{8}$C$_{4}$NO$_{10}$,0.018899999999999917,eV/atom,
ZnS,2.0261,eV/atom,
Na$_{4}$CdP$_{2}$,0.7385000000000002,eV/atom,
Cr$_{4}$AgBiO$_{14}$,1.9911999999999999,eV/atom,
CdI$_{2}$,2.3417,eV/atom,
BaLa$_{2}$In$_{2}$O$_{7}$,2.4620000000000006,eV/atom,
YPt$_{2}$,0.0,eV/atom,
Zn$_{3}$Ru,0.0,eV/atom,
LiGeBO$_{4}$,2.7310999999999996,eV/atom,
Te$_{2}$Xe(OF$_{5}$)$_{2}$,2.2917,eV/atom,
CdGeAs$_{2}$,0.03100000000000014,eV/atom,
Ce$_{3}$Mn(Al$_{3}$Cu)$_{8}$,0.0,eV/atom,
CsAlCl$_{4}$,5.3868,eV/atom,
Pt(NCl$_{2}$)$_{2}$,0.9418,eV/atom,
BaFe$_{2}$P$_{2}$O$_{7}$F$_{2}$,3.9301999999999997,eV/atom,
CeMg,0.0,eV/atom,
B$_{4}$PbO$_{7}$,4.208499999999999,eV/atom,
PrSnRh,0.0,eV/atom,
Ca(GeIr)$_{2}$,0,eV/atom,
Al(PO$_{3}$)$_{3}$,5.6178,eV/atom,
AlPO$_{4}$,5.612399999999999,eV/atom,
BaBeF$_{4}$,7.5543000000000005,eV/atom,
LiSn$_{4}$Rh,0.0,eV/atom,
ErNi$_{2}$,0.0,eV/atom,
Rb,0.0,eV/atom,
Sm$_{4}$Cl$_{6}$O,0.0,eV/atom,
Sm$_{2}$Ti$_{2}$O$_{7}$,2.7404,eV/atom,
Er$_{2}$(Ga$_{3}$Co)$_{3}$,0.0,eV/atom,
Ba$_{2}$GdCl$_{7}$,2.4275,eV/atom,
FePO$_{4}$,2.5674,eV/atom,
Rb$_{3}$InS$_{3}$,2.262,eV/atom,
Dy$_{6}$Ni$_{2}$Sn,0.0,eV/atom,
La$_{2}$MoO$_{6}$,2.7923999999999998,eV/atom,
TmAlPt,0.0,eV/atom,
Li$_{2}$CdSn,0.0,eV/atom,
Rb$_{2}$UF$_{6}$,0.041300000000000114,eV/atom,
Cd(Mo$_{3}$S$_{4}$)$_{2}$,0.0,eV/atom,
CeNiSnH,0.0,eV/atom,
NdZnAsO,0.8621999999999996,eV/atom,
NaNdO$_{2}$,3.3339,eV/atom,
Ca$_{2}$GaPd$_{2}$,0.0,eV/atom,
CaSnHg,0.0,eV/atom,
SrRuO$_{3}$,0.0,eV/atom,
Tm$_{4}$B$_{3}$C$_{4}$,0.0,eV/atom,
Sr$_{5}$U$_{3}$O$_{14}$,2.0422000000000002,eV/atom,
CdH$_{9}$C$_{2}$(N$_{2}$O$_{5}$)$_{2}$,1.8031000000000001,eV/atom,[Cd+2].O=CN.O=CN.O=[N+]([O-])[O-].O=[N+]([O-])[O-].O.O
CaGe$_{2}$,0.0,eV/atom,
Ba$_{7}$MnFe$_{6}$F$_{34}$,2.0787,eV/atom,
K$_{2}$Zr,0.0,eV/atom,
Sr$_{2}$ScFeAsO$_{3}$,0.0,eV/atom,
RbHSO$_{4}$,4.6737,eV/atom,
BaSbF$_{5}$,4.7525,eV/atom,
Cr$_{5}$Si$_{3}$,0.0,eV/atom,
Nd$_{3}$Co,0.0,eV/atom,
TmSiRu,0.0,eV/atom,
InCuPO$_{5}$,0.3003999999999998,eV/atom,
Rb$_{2}$CuCl$_{4}$,0.16019999999999995,eV/atom,
CrWO$_{4}$,1.6685999999999996,eV/atom,
Yb$_{5}$Ge$_{3}$,0.0,eV/atom,
EuSnP,0.033199999999999896,eV/atom,
Li$_{14}$Cr$_{2}$N$_{8}$O,2.4159999999999995,eV/atom,
ErCu(WO$_{4}$)$_{2}$,1.2104,eV/atom,
UO$_{3}$,1.9038,eV/atom,
Ba$_{2}$Sc$_{2}$B$_{4}$O$_{11}$,3.3548,eV/atom,
SrCu$_{3}$(RuO$_{3}$)$_{4}$,0.0,eV/atom,
Sr$_{2}$DyCu$_{3}$(PbO$_{4}$)$_{2}$,0.0,eV/atom,
Na$_{2}$Sn(H$_{2}$N)$_{6}$,1.214,eV/atom,
PrAg$_{2}$,0.0,eV/atom,
RbAu$_{5}$,0.0,eV/atom,
Fe$_{2}$PO$_{4}$F,3.4341000000000004,eV/atom,
PrInRh,0.0,eV/atom,
TbAlNi,0.0,eV/atom,
Mg$_{4}$As$_{6}$Ir$_{7}$,0.0,eV/atom,
SrZrO$_{3}$,3.4747000000000003,eV/atom,
BaSm$_{2}$ZnO$_{5}$,3.2387,eV/atom,
SmCo$_{4}$B,0.0,eV/atom,
Ga(SbBr)$_{4}$,2.0068,eV/atom,
Na$_{2}$AlCoF$_{7}$,0.02639999999999998,eV/atom,
Li$_{5}$Br$_{3}$O$_{2}$,0.6271,eV/atom,
Rb$_{2}$ZnH$_{4}$,4.0139,eV/atom,
EuH$_{3}$Pd,0.0,eV/atom,
BaGa$_{4}$S$_{7}$,2.5800000000000005,eV/atom,
LaAl$_{3}$,0.0,eV/atom,
BaSi,0.0,eV/atom,
Ca$_{3}$AlCd$_{17}$,0.0,eV/atom,
Yb$_{3}$SiO,0.0,eV/atom,
NdAl$_{3}$(BO$_{3}$)$_{4}$,5.1342,eV/atom,
KPrO$_{2}$,3.6626000000000003,eV/atom,
Ce$_{3}$(BN$_{2}$)$_{2}$,0.0,eV/atom,
ScRe$_{2}$,0.0,eV/atom,
Pr$_{8}$Sb$_{2}$S$_{15}$,1.8916,eV/atom,
Tl$_{2}$Zn(CN)$_{4}$,4.852600000000001,eV/atom,
PrCuSO,1.6415999999999995,eV/atom,
Li$_{2}$V(PO$_{4}$)$_{2}$,2.6334,eV/atom,
Er$_{2}$Ga$_{8}$Fe,0.0,eV/atom,
Ca$_{2}$MnWO$_{6}$,2.3282000000000003,eV/atom,
NdRu$_{2}$,0.0,eV/atom,
SbH$_{12}$C$_{4}$NF$_{4}$,1.6613,eV/atom,O=[Sb]([O-])([O-])F.O=[Sb]([O-])([O-])F.O=[Sb]([O-])([O-])F.O=[Sb]([O-])([O-])F.C[N+](C)(C)C.C[N+](C)(C)C.C[N+](C)(C)C.C[N+](C)(C)C.C[N+](C)(C)C.C[N+](C)(C)C.C[N+](C)(C)C.C[N+](C)(C)C
CaF$_{2}$,7.118,eV/atom,
Yb$_{2}$Cu$_{2}$O$_{5}$,0.9219999999999999,eV/atom,
KH$_{2}$N,2.0569,eV/atom,
Er(Al$_{10}$Cr)$_{2}$,0.0,eV/atom,
VNiSb,0.0,eV/atom,
ZnH$_{12}$N$_{4}$(ClO$_{4}$)$_{2}$,4.359500000000001,eV/atom,
Ca$_{3}$ZnSe$_{4}$,2.049,eV/atom,
Li(Mo$_{4}$O$_{5}$)$_{2}$,0.0,eV/atom,
RbSm(CO$_{3}$)$_{2}$,4.1306,eV/atom,
Rb$_{2}$CoSe$_{2}$,0.0,eV/atom,
UBr$_{4}$(NO$_{2}$)$_{2}$,0.0,eV/atom,
RbNbS$_{2}$O$_{9}$,2.777,eV/atom,
Eu(CuSi)$_{2}$,0.0,eV/atom,
Cs$_{2}$MoCl$_{6}$,0.0,eV/atom,
SrZrSi$_{2}$O$_{7}$,4.7096,eV/atom,
CdGaH$_{14}$O$_{7}$F$_{5}$,4.338,eV/atom,[F-].[F-].[F-].[F-].[F-].[Ga+3].[Cd+2].O.O.O.O.O.O.O
Hf$_{5}$Sb$_{3}$,0.0,eV/atom,
Eu$_{5}$Sb$_{3}$,0.0,eV/atom,
Ca$_{3}$Nb$_{4}$(O$_{6}$F)$_{2}$,2.9837,eV/atom,
Ca$_{2}$SiCl$_{2}$O$_{3}$,5.1049,eV/atom,
MgH$_{12}$S$_{2}$O$_{9}$,4.3727,eV/atom,
Ba$_{3}$As$_{2}$H$_{14}$S$_{8}$O$_{7}$,1.9766000000000001,eV/atom,
Cr$_{3}$B$_{4}$,0.0,eV/atom,
Hg(Mo$_{3}$S$_{4}$)$_{2}$,0.0,eV/atom,
AlPO$_{4}$,5.508,eV/atom,
Ca(MgAs)$_{2}$,1.2605000000000004,eV/atom,