formula,Property band_gap,Property band_gap units,Property SMILES
YSiPd,0.0,eV/atom,
NaZnAsO$_{4}$,2.7862,eV/atom,
Dy$_{2}$V$_{2}$O$_{7}$,1.0590000000000006,eV/atom,
SnPSe$_{3}$,1.4922999999999997,eV/atom,
CsFe$_{2}$Se$_{3}$,0.0,eV/atom,
GaBH$_{6}$,4.8941,eV/atom,
ReNCl$_{4}$O$_{3}$,1.4540000000000002,eV/atom,
Gd$_{4}$Ti(SeO)$_{4}$,0.6332,eV/atom,
SrHg,0.0,eV/atom,
ZnO,0.0,eV/atom,
Tl$_{3}$Pt,0.0,eV/atom,
Cu$_{2}$WS$_{4}$,1.5543,eV/atom,
Zn(ReO$_{4}$)$_{2}$,3.9894,eV/atom,
MnTe$_{2}$,0.0,eV/atom,
CsF,5.9329,eV/atom,
Sr$_{2}$LiBeB$_{3}$O$_{8}$,4.7198,eV/atom,
K$_{2}$SbF$_{5}$,4.6778,eV/atom,
Er$_{3}$Cu$_{3}$Sb$_{4}$,0.40729999999999933,eV/atom,
PrSF,1.2541000000000002,eV/atom,
Th(SiNi)$_{2}$,0.0,eV/atom,
TlPPbS$_{4}$,2.074,eV/atom,
NaLiP$_{2}$(H$_{4}$O$_{5}$)$_{2}$,5.129099999999999,eV/atom,
Gd$_{3}$CuSnSe$_{7}$,0.7255000000000003,eV/atom,
Sr$_{13}$(MgSi$_{10}$)$_{2}$,0.03610000000000024,eV/atom,
KIn$_{9}$Ni$_{2}$,0.0,eV/atom,
CsAsO$_{4}$,0.5686,eV/atom,
Fe$_{3}$Se$_{4}$,0.0,eV/atom,
CaCd$_{2}$,0.0,eV/atom,
YbPd$_{3}$,0.0,eV/atom,
RbUO$_{3}$,0.41000000000000014,eV/atom,
NaAlO$_{2}$,3.7968,eV/atom,
Ca(BH)$_{2}$,0.018600000000000172,eV/atom,
AgClO$_{4}$,2.3652,eV/atom,
AsS$_{7}$IF$_{6}$,1.8164,eV/atom,
CeInNi,0.0022999999999999687,eV/atom,
LaGaSe$_{2}$O,1.5984999999999996,eV/atom,
CsNO$_{3}$,3.0696,eV/atom,
Sb$_{2}$O$_{3}$,2.2239000000000004,eV/atom,
K$_{2}$AgSb,1.187,eV/atom,
C,2.4558999999999997,eV/atom,
BaSb$_{2}$,0.0,eV/atom,
CsLiBeF$_{4}$,6.8736,eV/atom,
Co$_{3}$(PO$_{4}$)$_{2}$,2.713,eV/atom,
W$_{25}$O$_{73}$,0.0,eV/atom,
DyAlGe,0.0,eV/atom,
Ho$_{2}$BiO$_{2}$,0.0,eV/atom,
SrTe,0.47520000000000007,eV/atom,
Yb$_{4}$Ge$_{6}$Ir$_{7}$,0.0,eV/atom,
NaLiV$_{2}$O$_{6}$,3.0841,eV/atom,
ZrV$_{2}$,0.0,eV/atom,
LaCoSb$_{2}$,0.0,eV/atom,
Fe$_{7}$P$_{6}$(HO$_{6}$)$_{4}$,3.1224,eV/atom,
YBC,0.0,eV/atom,
KEu(CuTe$_{2}$)$_{2}$,0.0,eV/atom,
CsUVO$_{6}$,2.0327,eV/atom,
VP$_{2}$,0.0,eV/atom,
CrHg$_{5}$O$_{6}$,0.8531,eV/atom,
NaIn(WO$_{4}$)$_{2}$,3.4845,eV/atom,
K$_{2}$ZrF$_{6}$,5.5342,eV/atom,
TbSb$_{2}$,0.0,eV/atom,
Hf$_{4}$Al$_{3}$,0.0,eV/atom,
TbGaCo,0.0,eV/atom,
KBaB$_{5}$O$_{9}$,4.8693,eV/atom,
Na$_{2}$Te$_{2}$H$_{4}$O$_{7}$,3.7367999999999997,eV/atom,
K(BH)$_{6}$,5.5283999999999995,eV/atom,
Tm$_{2}$CdSe$_{4}$,0.6581000000000001,eV/atom,
Rb$_{2}$SbBr$_{6}$,0.0,eV/atom,
Sm$_{4}$Sn$_{3}$,0.0,eV/atom,
K$_{2}$Co$_{3}$H$_{6}$S$_{3}$O$_{16}$,2.857,eV/atom,
H$_{7}$CSeN$_{3}$O$_{4}$,0.5812999999999999,eV/atom,O=[Se](=O)(O)O.NC(N)=[NH2+]
Dy$_{4}$(SiS$_{4}$)$_{3}$,2.3623000000000003,eV/atom,
TaBi$_{4}$BrO$_{8}$,1.7271999999999998,eV/atom,
Na$_{3}$FePCO$_{7}$,3.7631000000000006,eV/atom,
Si,0.14440000000000008,eV/atom,
PbO$_{2}$,0.0,eV/atom,
Zr(Fe$_{2}$Si)$_{2}$,0.0,eV/atom,
PaBr$_{4}$,0.0411999999999999,eV/atom,
KMnH$_{2}$OF$_{4}$,1.4975999999999998,eV/atom,
KTcCl$_{3}$,1.6961,eV/atom,
CsH$_{5}$S$_{2}$(NO$_{3}$)$_{2}$,4.9117,eV/atom,
LiMoAsO$_{6}$,2.5526999999999997,eV/atom,
CoTeMoO$_{6}$,2.5156000000000005,eV/atom,
Nb$_{3}$AgO$_{8}$,1.5603999999999996,eV/atom,
KHgBr$_{3}$O,0.6926,eV/atom,
CaAl$_{2}$B$_{2}$O$_{7}$,4.8231,eV/atom,
LiSiB$_{6}$,1.6762000000000006,eV/atom,
CaBePO$_{4}$F,6.1019,eV/atom,
BaGa$_{2}$(GeO$_{4}$)$_{2}$,3.2617,eV/atom,
Na$_{3}$B$_{7}$O$_{12}$,4.9219,eV/atom,
AlBiSeCl$_{4}$,2.5424,eV/atom,
CoSnH$_{12}$(OF)$_{6}$,0.0,eV/atom,
TiNiAs,0.0,eV/atom,
DySnPd$_{2}$,0.0,eV/atom,
IrC$_{2}$,0.0,eV/atom,
YSiIr,0.0,eV/atom,
GdB$_{12}$,0.0,eV/atom,
Li$_{12}$Mg$_{3}$Si$_{4}$,0.0,eV/atom,
LiGaPO$_{5}$,0.5801000000000001,eV/atom,
ScNiBi,0.18440000000000012,eV/atom,
RbAgSe$_{4}$,1.1614000000000002,eV/atom,
GaFeCo$_{2}$,0.0,eV/atom,
EuRh$_{2}$,0.0,eV/atom,
CeSe$_{2}$,0.0,eV/atom,
Fe$_{3}$PO$_{7}$,1.9694999999999998,eV/atom,
U(SiPt)$_{2}$,0,eV/atom,
ScH$_{4}$Pd$_{3}$,0.0,eV/atom,
BaTmFe$_{4}$O$_{7}$,0.0,eV/atom,
TbGa$_{5}$Co,0.0,eV/atom,
LuAl$_{3}$,0.0,eV/atom,
ZrF$_{4}$,5.3413,eV/atom,
ThAl,0.0,eV/atom,
Te$_{2}$Pd,0.0,eV/atom,
Nd$_{2}$O$_{3}$,3.8109,eV/atom,
SnS,1.4274,eV/atom,
Co$_{2}$TeCl$_{2}$O$_{3}$,2.4064000000000005,eV/atom,
ThSi$_{2}$Ru$_{3}$,0.0,eV/atom,
FeTeAs,0.7499000000000002,eV/atom,
Rb$_{2}$U(ClO)$_{4}$,0.7404999999999999,eV/atom,
Pd$_{2}$PbO$_{4}$,0.0,eV/atom,
Nd(NiBi)$_{2}$,0.0,eV/atom,
HoH$_{18}$C$_{3}$S$_{3}$(O$_{2}$F)$_{9}$,5.9498,eV/atom,
CoHO$_{2}$,0.0,eV/atom,
Te$_{2}$SO$_{7}$,2.9042,eV/atom,
Tm$_{5}$NiPb$_{3}$,0.0,eV/atom,
MnVAgO$_{4}$,1.8677000000000001,eV/atom,
Ce$_{3}$Ga$_{10}$Ni,0.0,eV/atom,
Nd$_{2}$NiO$_{4}$,0.6638000000000002,eV/atom,
ScAl$_{2}$Ni,0.0,eV/atom,
Bi$_{2}$TeO$_{6}$,1.4566999999999997,eV/atom,
LiScGeO$_{4}$,3.9614000000000003,eV/atom,
K(Mo$_{3}$S$_{4}$)$_{2}$,0.0,eV/atom,
PbS,2.0909000000000004,eV/atom,
Tb$_{5}$Sb$_{3}$,0,eV/atom,
P$_{2}$RhClF$_{6}$,1.4246999999999999,eV/atom,
Hf$_{3}$Zn$_{3}$N,0.0,eV/atom,
UFeO$_{4}$,0.007400000000000517,eV/atom,
TmB$_{4}$Os,0.0,eV/atom,
KNa$_{2}$CuO$_{2}$,1.5144,eV/atom,
Na$_{2}$LiAlP$_{2}$,1.8853000000000004,eV/atom,
Ce$_{2}$Si$_{4}$Pt$_{7}$,0.0,eV/atom,
Eu$_{2}$Sn$_{2}$O$_{7}$,0.0,eV/atom,
Rb$_{2}$Li$_{2}$SiO$_{4}$,3.8516,eV/atom,
ThAgPO,0.0,eV/atom,
KO$_{3}$,0.6216999999999999,eV/atom,
Cs$_{2}$Pd(ICl$_{2}$)$_{2}$,0.8764000000000001,eV/atom,
TaInSe$_{2}$,0.0,eV/atom,
LiCaAlF$_{6}$,7.6448,eV/atom,
HfGa,0.0,eV/atom,
NdTlSe$_{2}$,1.9676000000000005,eV/atom,
CaSi$_{2}$O$_{5}$,4.7791999999999994,eV/atom,
Na$_{8}$Ti$_{5}$O$_{14}$,3.5098000000000003,eV/atom,
BaHgS$_{2}$,1.1569,eV/atom,
BaSn$_{5}$,0.0,eV/atom,
BiKrF$_{7}$,2.3578,eV/atom,
CdCoH$_{18}$N$_{6}$Cl$_{5}$,2.5006,eV/atom,
VNiGe,0.0,eV/atom,
Rb$_{2}$TeMo$_{2}$(PO$_{7}$)$_{2}$,2.9934000000000003,eV/atom,
CePO$_{4}$,0.18820000000000014,eV/atom,
Ba$_{2}$CaTl$_{2}$(CuO$_{4}$)$_{2}$,0.0,eV/atom,
Zr$_{7}$P$_{4}$,0.0,eV/atom,
Nb$_{3}$Te$_{4}$,0.0,eV/atom,
Cs$_{2}$AgAuCl$_{6}$,0.7122999999999999,eV/atom,
Bi(TeBr$_{2}$)$_{2}$,1.0593,eV/atom,
H$_{20}$RuC$_{6}$NO$_{14}$,0.6942,eV/atom,
LaCu$_{3}$(RuO$_{3}$)$_{4}$,0.0,eV/atom,
MnH$_{12}$S$_{2}$(NO$_{5}$)$_{2}$,4.2456,eV/atom,
NaAsH$_{4}$O$_{5}$,3.8417000000000003,eV/atom,
H$_{4}$OF$_{2}$,7.0619,eV/atom,
Er$_{2}$Se$_{3}$,0.7923,eV/atom,
H$_{5}$N$_{2}$F,5.4604,eV/atom,[F-].N[NH3+]
Hg$_{4}$HN$_{3}$O$_{10}$,2.0558,eV/atom,
K$_{2}$Ti(Si$_{2}$O$_{5}$)$_{3}$,3.4437,eV/atom,
Zn$_{2}$FeP$_{2}$(H$_{2}$O$_{3}$)$_{4}$,3.1504999999999996,eV/atom,
CoTe,0.0,eV/atom,
RbMnP,0.0,eV/atom,
Ba$_{14}$Na$_{17}$CaN$_{6}$,0.00749999999999984,eV/atom,
GeIr,0.0,eV/atom,
HfCu$_{2}$Te$_{3}$,0.058699999999999974,eV/atom,
Gd(BC)$_{2}$,0.0,eV/atom,
NiSnH$_{12}$(OF)$_{6}$,3.6544,eV/atom,
LiRe(OF$_{2}$)$_{2}$,3.1439000000000004,eV/atom,
Sr$_{7}$Pt$_{3}$,0.0,eV/atom,
Sr$_{2}$NO$_{6}$,0.16259999999999997,eV/atom,
Sr$_{2}$NbInO$_{6}$,3.3866,eV/atom,
ZrCd,0.0,eV/atom,
TaAlO$_{4}$,4.0663,eV/atom,
SmCoSb$_{2}$,0.0,eV/atom,
Na$_{4}$AlP$_{2}$HO$_{9}$,4.4207,eV/atom,
ZnSnP$_{2}$,0.7042999999999999,eV/atom,
Pr$_{2}$SbO$_{5}$F,3.5080000000000005,eV/atom,
K$_{2}$MoS$_{4}$,1.4127999999999998,eV/atom,
Ba(AlSi)$_{2}$,0.0,eV/atom,
TlPO$_{3}$,3.4606,eV/atom,
Sr$_{2}$MgReO$_{6}$,0.0,eV/atom,
Yb$_{2}$Ru$_{2}$O$_{7}$,0.0,eV/atom,
Fe$_{2}$(SO$_{4}$)$_{3}$,2.2129,eV/atom,
NiSO$_{9}$,0.0,eV/atom,
SiO$_{2}$,5.4244,eV/atom,
LuAu$_{4}$,0.0,eV/atom,
YH$_{2}$,0.0,eV/atom,
La$_{3}$HfSb$_{5}$,0.0,eV/atom,
La$_{3}$Cu$_{3}$Sb$_{4}$,0.33140000000000036,eV/atom,
Rb(CoS)$_{2}$,0.0,eV/atom,
Cu$_{3}$TeO$_{6}$,0.0,eV/atom,
TlSb$_{3}$S$_{5}$,1.5863,eV/atom,
Sb$_{2}$Se$_{3}$,0.7564000000000002,eV/atom,
CuS$_{2}$,0.0,eV/atom,
LaSi$_{5}$,0.0,eV/atom,
Dy$_{3}$GaC,0.0,eV/atom,
NiH$_{16}$C$_{4}$S$_{4}$(N$_{4}$Cl)$_{2}$,0.5148000000000001,eV/atom,
K$_{4}$SnSe$_{4}$,1.7396,eV/atom,
UAlIr,0.0,eV/atom,
ZnO$_{2}$,2.1271999999999998,eV/atom,
Mn(InTe$_{2}$)$_{2}$,0.04090000000000016,eV/atom,
Cd$_{3}$As$_{2}$,0.0,eV/atom,
Pr,0.0,eV/atom,
CsPbF$_{3}$,2.9248000000000003,eV/atom,
Nb$_{3}$TeI$_{7}$,0.47799999999999976,eV/atom,
CaTeO$_{3}$,3.2937999999999996,eV/atom,
NaN$_{3}$,0.0,eV/atom,
Np$_{2}$S$_{3}$,0.0,eV/atom,
ErZnAsO,1.5736000000000003,eV/atom,
NdMgNi$_{4}$H$_{7}$,0.0,eV/atom,
Li$_{6}$FeCl$_{8}$,0.6532999999999998,eV/atom,
Na$_{2}$PdCl$_{4}$,1.1864000000000001,eV/atom,
LiBH$_{4}$,6.8115000000000006,eV/atom,
Cu$_{2}$AgPS$_{4}$,1.1839000000000004,eV/atom,
KRb$_{2}$BiF$_{6}$,4.7975,eV/atom,
MoPb$_{5}$O$_{8}$,2.4221999999999997,eV/atom,
Sm$_{5}$Ga$_{3}$,0.0,eV/atom,
Rb$_{5}$GeP$_{3}$,0.46140000000000003,eV/atom,
YbMn$_{2}$,0.0,eV/atom,
TaMnGe,0.0,eV/atom,
Co$_{4}$SnSb$_{12}$,0.0,eV/atom,
H$_{4}$CSN$_{2}$,3.6174999999999997,eV/atom,S=C(N)N
CrAs$_{2}$,0.0,eV/atom,
Fe$_{3}$(P$_{2}$O$_{7}$)$_{2}$,1.8996,eV/atom,
LuAsSe,0.1377000000000006,eV/atom,
NiP,0.0,eV/atom,
Sr$_{3}$Ag$_{2}$,0.0,eV/atom,
LaCo$_{13}$,0.0,eV/atom,
K$_{2}$Er(NO$_{3}$)$_{5}$,3.4458,eV/atom,
NaUO$_{3}$,0.43100000000000005,eV/atom,
GaCuPt$_{2}$,0.0,eV/atom,
TiS$_{3}$,0.0,eV/atom,
Si$_{5}$Ir$_{3}$,0.9666999999999994,eV/atom,
NbCuO$_{3}$F,0.17310000000000003,eV/atom,
ZnS,2.0368,eV/atom,
SiO$_{2}$,5.3649000000000004,eV/atom,
BaLa$_{2}$PtO$_{5}$,2.4067000000000007,eV/atom,
PbS,1.2145000000000001,eV/atom,
K$_{4}$LiIO$_{6}$,2.0858,eV/atom,
PuB$_{4}$Ru,0.0,eV/atom,
NaCrP$_{2}$O$_{7}$,2.7103,eV/atom,
Hf$_{2}$CuSi$_{4}$,0.0,eV/atom,
Sn$_{4}$As$_{3}$,0.0,eV/atom,
KLa(PO$_{3}$)$_{4}$,4.8922,eV/atom,[K+].[La+3].O=P([O-])([O-])OP(=O)([O-])OP(=O)([O-])OP(=O)(O)O
Na$_{3}$Sr$_{3}$GaAs$_{4}$,0.44189999999999996,eV/atom,
Tl$_{2}$MoCl$_{6}$,0.0,eV/atom,
CdI$_{2}$,2.3601,eV/atom,
H$_{7}$IN$_{2}$,3.6926,eV/atom,
PbS,2.0786,eV/atom,
Rb$_{2}$CdSiO$_{4}$,2.4876,eV/atom,
MnSe,0.0484,eV/atom,
MnP,0.0,eV/atom,
CoP$_{3}$,0.27949999999999964,eV/atom,
HgF$_{2}$,0.9684,eV/atom,
BaBiBS$_{4}$,1.9279000000000002,eV/atom,
Na$_{2}$H$_{10}$SO$_{5}$,3.3539,eV/atom,
Eu(SiRu)$_{2}$,0.0,eV/atom,
CuP(HO)$_{5}$,0.0,eV/atom,
NaH$_{4}$IO$_{2}$,3.6957,eV/atom,
YOs$_{2}$,0.0,eV/atom,
K$_{3}$Cu$_{5}$O$_{4}$,1.5555999999999999,eV/atom,
RbP$_{2}$WO$_{8}$,3.4378,eV/atom,
CdO$_{2}$,1.2535000000000003,eV/atom,
Co$_{10}$Ge$_{3}$O$_{16}$,0.0343,eV/atom,
LiGaSiO$_{4}$,4.0502,eV/atom,
Na$_{3}$Fe$_{2}$(MoO$_{4}$)$_{3}$,0.6301999999999999,eV/atom,
Mg$_{2}$Tl,0.0,eV/atom,
LuIO,3.2624,eV/atom,
Tl$_{3}$PO$_{4}$,2.6397999999999997,eV/atom,
P$_{4}$(S$_{2}$O)$_{3}$,3.2175000000000002,eV/atom,
KAl$_{2}$P$_{2}$H$_{8}$O$_{12}$F,4.9791,eV/atom,
CuAsSe,0.0041999999999999815,eV/atom,
K$_{3}$Lu(PO$_{4}$)$_{2}$,4.9407,eV/atom,
Pb(C$_{2}$N$_{3}$)$_{2}$,3.6313999999999997,eV/atom,[Pb+2].N#C[N-]C#N.N#C[N-]C#N
NbIr$_{3}$,0.0,eV/atom,
GdMgAu,0.0,eV/atom,
P$_{2}$O$_{9}$,3.0888,eV/atom,
BaNa$_{2}$Mg(PO$_{4}$)$_{2}$,4.869199999999999,eV/atom,
Nd$_{2}$InNi$_{2}$,0.0,eV/atom,
V$_{2}$PbO$_{6}$,2.2564999999999995,eV/atom,
NdScSi,0.0,eV/atom,
Ca$_{2}$CdP$_{2}$,1.2921999999999998,eV/atom,
Tl$_{4}$CrI$_{6}$,0.0,eV/atom,
Sr$_{3}$Hg,0.0,eV/atom,
SnICl,2.5132000000000003,eV/atom,
K$_{3}$Fe(CN)$_{6}$,0.0,eV/atom,
NpSi$_{3}$,0.0,eV/atom,
Zn$_{2}$SiO$_{5}$,2.1639,eV/atom,
ZnTe,0.0,eV/atom,
GdMn$_{2}$,0.0,eV/atom,
Lu$_{2}$Cr$_{2}$C$_{3}$,0.0,eV/atom,
YCr$_{4}$(CuO$_{4}$)$_{3}$,0.10770000000000035,eV/atom,
Ta$_{3}$PbS$_{6}$,0.0,eV/atom,
CaCdPt,0.0,eV/atom,
HoTiSi,0.0,eV/atom,
CdI$_{2}$,2.4004999999999996,eV/atom,
ZnO,0.44799999999999995,eV/atom,
TbAg$_{3}$H$_{6}$C$_{6}$(N$_{2}$O)$_{3}$,2.5766999999999998,eV/atom,
NaY(SiO$_{3}$)$_{2}$,4.8028,eV/atom,
Ce$_{3}$Bi$_{4}$Au$_{3}$,0.0,eV/atom,
Na$_{5}$Y$_{4}$Si$_{4}$O$_{16}$F,4.7696000000000005,eV/atom,
NaCr(SiO$_{3}$)$_{2}$,2.8718999999999997,eV/atom,
Ce$_{2}$O$_{3}$,0.0,eV/atom,
K$_{2}$CuPb(NO$_{2}$)$_{6}$,0.0,eV/atom,
CaSiO$_{3}$,3.6753,eV/atom,
CaGe$_{2}$Pt,0.0,eV/atom,
Ni$_{3}$Pt,0.0,eV/atom,
AlAu$_{4}$,0.0,eV/atom,
ThRu$_{3}$C,0.0,eV/atom,
Bi$_{2}$WO$_{6}$,1.9139999999999997,eV/atom,
Rb$_{2}$GeF$_{6}$,5.8839,eV/atom,
MnH$_{8}$(NF$_{3}$)$_{2}$,3.1861,eV/atom,
Co$_{2}$Sn,0.0,eV/atom,
RbSmO$_{2}$,3.4848,eV/atom,
Si$_{2}$Ru,0.0,eV/atom,
CsTeF$_{5}$,4.6238,eV/atom,
HoSnIr,0.0,eV/atom,
P$_{2}$Pd$_{3}$S$_{8}$,1.5779,eV/atom,
B$_{5}$Mo$_{2}$,0.0,eV/atom,
K$_{3}$Co(NO$_{2}$)$_{6}$,2.6982999999999997,eV/atom,
HfO$_{2}$,4.0165,eV/atom,
Sb$_{4}$Au(Xe$_{2}$F$_{11}$)$_{2}$,0.38080000000000025,eV/atom,
CsCuF$_{4}$,1.5224,eV/atom,
EuIn$_{2}$,0.0,eV/atom,
TbSnPt,0.0,eV/atom,
Se(Br$_{3}$N)$_{2}$,0.0,eV/atom,
TlV$_{3}$O$_{8}$,2.0029999999999997,eV/atom,
KIn$_{4}$,0.0,eV/atom,
PbWO$_{4}$,2.9616,eV/atom,
PtXeF$_{11}$,0.0,eV/atom,
SmSnF$_{7}$,4.9483999999999995,eV/atom,
Ho(MnGe)$_{2}$,0.0,eV/atom,
NaMnF$_{4}$,2.0519,eV/atom,
Sr$_{2}$LuRuO$_{6}$,0.11410000000000009,eV/atom,
HgNO$_{3}$,2.5687,eV/atom,
CrI$_{2}$,0.5076,eV/atom,
PRhO$_{4}$,0.9792000000000001,eV/atom,
Nd,0.0,eV/atom,
Na$_{2}$AgAs,0.7294,eV/atom,
Hg$_{3}$H$_{4}$S$_{2}$O$_{11}$,1.7372999999999998,eV/atom,
KAlSiO$_{4}$,4.6996,eV/atom,
NdMgNi$_{4}$,0.0,eV/atom,
Rb$_{2}$WBr$_{6}$,0.0,eV/atom,
TbPS$_{4}$,2.1701999999999995,eV/atom,[Tb+4].O=C([O-])C=1SC=CC1.O=C([O-])C=1SC=CC1.O=C([O-])C=1SC=CC1.O=C([O-])C=1SC=CC1
MnCoSe,0.0,eV/atom,
Ce(MnSi)$_{2}$,0.0,eV/atom,
Sm$_{3}$InN,0.0,eV/atom,
KLi$_{3}$PbO$_{4}$,1.7254999999999998,eV/atom,
BaCa$_{2}$(SiO$_{3}$)$_{3}$,4.5745000000000005,eV/atom,
Ca$_{5}$As$_{4}$(HO$_{2}$)$_{10}$,3.8236,eV/atom,
CsAg$_{5}$Se$_{3}$,0.0030999999999998806,eV/atom,
GdAl$_{4}$Ni,0.0,eV/atom,
RbAsOF$_{4}$,3.7089,eV/atom,
Li$_{4}$WO$_{5}$,3.8915999999999995,eV/atom,
Cs$_{2}$WCl$_{6}$,0.0,eV/atom,
Hg$_{9}$Bi$_{2}$(AsBr$_{3}$)$_{4}$,1.3685999999999998,eV/atom,
Ba$_{3}$In$_{2}$O$_{6}$,0.8820000000000001,eV/atom,
ScCo$_{2}$Sn,0.0,eV/atom,
Eu$_{2}$C(NO)$_{2}$,0.0,eV/atom,
CsGaCl$_{4}$,4.491,eV/atom,
PdPtF$_{6}$,0.7715000000000001,eV/atom,
Tl$_{2}$ZnI$_{4}$,2.9359,eV/atom,
SbCl$_{5}$,1.8233000000000001,eV/atom,
YSnIr,0.0,eV/atom,
Na$_{4}$As$_{2}$O$_{7}$,3.1898,eV/atom,
Gd$_{2}$CF$_{2}$,0.7328000000000001,eV/atom,
Mo$_{2}$C,0.0,eV/atom,
C$_{3}$N$_{4}$,3.1729000000000003,eV/atom,
KMnF$_{3}$,2.7828,eV/atom,
Nb$_{7}$S$_{2}$I$_{19}$,0.4354,eV/atom,
NaNp$_{3}$F$_{13}$,0.0,eV/atom,
AlSeS$_{2}$N$_{2}$Cl$_{5}$,2.2479,eV/atom,Cl[N+]1=NSS[Se]1.Cl[Al-](Cl)(Cl)Cl
Rb$_{9}$Fe$_{2}$S$_{7}$,0.5308999999999999,eV/atom,
Hg,1.0986,eV/atom,
LiEuSb,0.0,eV/atom,
RbTiAsO$_{5}$,3.056,eV/atom,
Cs$_{2}$Mn(PO$_{3}$)$_{4}$,4.6555,eV/atom,
Nb$_{7}$(B$_{2}$C)$_{3}$,0,eV/atom,
Yb$_{2}$PrDyS$_{6}$,1.2582,eV/atom,
Ni$_{5}$(AsO$_{6}$)$_{2}$,0.0,eV/atom,
LiBH$_{4}$,5.4652,eV/atom,
NiH$_{8}$(ClO$_{2}$)$_{2}$,3.9693,eV/atom,Cl[Ni]Cl.O.O.O.O
DyH$_{6}$C$_{6}$Cl$_{3}$(O$_{3}$F$_{2}$)$_{3}$,4.2831,eV/atom,
V$_{8}$Ga$_{41}$,0.008599999999999497,eV/atom,
Sn$_{3}$As$_{4}$,0.391,eV/atom,
TeWCl$_{9}$,0.0,eV/atom,
PrCo$_{2}$,0.0,eV/atom,
HoN,0.0,eV/atom,
H$_{5}$CSN$_{2}$ClO$_{4}$,2.4905,eV/atom,
DyTlS$_{2}$,1.5297,eV/atom,
ZrCuGe$_{2}$,0.0,eV/atom,
Li$_{2}$V$_{2}$(SO$_{4}$)$_{3}$,3.3510999999999997,eV/atom,
KY$_{3}$F$_{10}$,6.930300000000001,eV/atom,
Fe$_{3}$Sn$_{2}$,0.0,eV/atom,
SbH$_{7}$(Br$_{2}$O)$_{3}$,0.8734,eV/atom,
Ba$_{2}$V$_{3}$O$_{9}$,1.5279000000000003,eV/atom,
CrPS$_{4}$,0.6760000000000002,eV/atom,
KInBr$_{4}$,2.8234,eV/atom,
Li$_{2}$CdSb,0,eV/atom,
MnFe$_{3}$,0.0,eV/atom,
PrSbTe,0.0,eV/atom,
PaH$_{3}$,0.0,eV/atom,
Ce$_{5}$Ge$_{2}$Ru,0.0,eV/atom,
Tb$_{3}$ReO$_{7}$,0.0,eV/atom,
GaCoPH$_{18}$C$_{9}$NCl$_{2}$O$_{3}$,3.4515,eV/atom,
Cs$_{6}$Cl$_{4}$O,1.984,eV/atom,
NaH$_{4}$CNO$_{2}$,5.825200000000001,eV/atom,
Nd$_{2}$Fe$_{12}$P$_{7}$,0.0,eV/atom,
Rb$_{4}$CO$_{4}$,1.7482000000000002,eV/atom,
LaTl$_{3}$,0.0,eV/atom,
TiCu$_{2}$Te$_{3}$,0.0,eV/atom,
Mg$_{3}$Si$_{2}$O$_{9}$,0.0,eV/atom,
TlCuCl$_{3}$,0.30889999999999995,eV/atom,
NaCaH$_{3}$,2.1679,eV/atom,
SrSe$_{2}$O$_{5}$,3.2807999999999997,eV/atom,
NiPbF$_{6}$,2.2269,eV/atom,
K$_{3}$CrO$_{4}$,1.2393999999999998,eV/atom,
Hf(Te$_{2}$Cl$_{3}$)$_{2}$,1.2626,eV/atom,
Rb$_{2}$CdCl$_{4}$,3.1706,eV/atom,
Ta$_{2}$Be,0.0,eV/atom,
PuAl$_{2}$,0.0,eV/atom,
Er$_{2}$V$_{2}$O$_{7}$,0.0,eV/atom,
Zn(CN)$_{2}$,5.9133,eV/atom,
Cs$_{2}$Pd$_{3}$Se$_{4}$,1.0684000000000002,eV/atom,
Ga$_{3}$(Ni$_{10}$B$_{3}$)$_{2}$,0.0,eV/atom,
LiMoP$_{2}$O$_{7}$,4.0469,eV/atom,
EuIO,0.0,eV/atom,
Mn$_{3}$GeC,0.0,eV/atom,
LiGd(PO$_{3}$)$_{4}$,3.4712,eV/atom,
Zn$_{5}$(BRh$_{2}$)$_{4}$,0.0,eV/atom,
SmInCo$_{2}$,0.0,eV/atom,
Cr$_{3}$Pt,0.0,eV/atom,
Li(Mg$_{2}$Si)$_{2}$,0.0,eV/atom,
ThSn$_{2}$,0.0,eV/atom,
YMgAg,0.0,eV/atom,
CeCrSe$_{2}$O,0,eV/atom,
MgSe$_{2}$,1.634,eV/atom,
Pr$_{10}$Se$_{14}$O,1.4217999999999997,eV/atom,
HoGa$_{6}$,0.0,eV/atom,
Te$_{4}$Rh$_{3}$,0.0,eV/atom,
SiO$_{2}$,1.9962,eV/atom,
CsCaH$_{3}$,3.1483,eV/atom,
LaSiBO$_{5}$,4.1759,eV/atom,
Ga$_{2}$TeSe$_{2}$,1.6077000000000001,eV/atom,
Pr$_{4}$Te$_{3}$N$_{2}$,0.7522000000000002,eV/atom,
C$_{3}$N$_{4}$,1.3801999999999999,eV/atom,
IrBr$_{3}$,1.5564999999999998,eV/atom,
Ba$_{2}$Cu(PO$_{3}$)$_{6}$,1.1062,eV/atom,
KUNbO$_{6}$,1.9425999999999999,eV/atom,
FeCu$_{2}$SnSe$_{4}$,0.0,eV/atom,
Cs$_{2}$Ti(PO$_{4}$)$_{2}$,3.4477,eV/atom,
Li$_{2}$InAg,0.0,eV/atom,
KAlCl$_{4}$,5.286300000000001,eV/atom,
Mg$_{3}$Si(O$_{2}$F)$_{2}$,5.0611,eV/atom,
H$_{9}$C$_{3}$N$_{3}$O$_{2}$,4.8956,eV/atom,O=C[O-].NC(=[NH2+])NC
LiMg$_{2}$Si,0.0,eV/atom,
TmCoSn,0.0,eV/atom,
Sr$_{2}$Ta$_{2}$O$_{7}$,2.9093,eV/atom,
Ge$_{3}$Ru$_{2}$,0.3529,eV/atom,
CoP$_{3}$NO$_{9}$,1.2072,eV/atom,
RbCrF$_{6}$,1.4163999999999999,eV/atom,
Bi$_{20}$(PtBr$_{12}$)$_{3}$,1.2284000000000002,eV/atom,
Ce$_{2}$Zr$_{2}$O$_{7}$,0.0,eV/atom,
Rb$_{5}$B$_{19}$O$_{31}$,5.2851,eV/atom,
NdTa$_{3}$O$_{9}$,3.2140000000000004,eV/atom,
HgSeO$_{4}$,0.8439999999999999,eV/atom,
K$_{2}$SnN$_{6}$,0.0,eV/atom,
RbTeNO$_{3}$F$_{4}$,3.1786,eV/atom,
Rb$_{2}$Ag$_{4}$Pd$_{3}$(NO$_{2}$)$_{12}$,1.7792,eV/atom,
U$_{6}$Co$_{12}$Ge$_{4}$C,0.0,eV/atom,
Cs$_{2}$MnBr$_{4}$,2.5604,eV/atom,
NiP$_{2}$H$_{24}$(C$_{2}$O$_{7}$)$_{2}$,4.8972,eV/atom,
DyNiGe,0.0,eV/atom,
Zn$_{2}$SiO$_{4}$,2.6045,eV/atom,
BaPt,0.0,eV/atom,
Ba$_{2}$Zn$_{3}$(AsO)$_{2}$,0.11900000000000022,eV/atom,
Ho$_{2}$Si$_{4}$Mo$_{3}$,0.0,eV/atom,
Nb$_{9}$PO$_{25}$,2.1092,eV/atom,
Li$_{8}$TbO$_{6}$,0.0,eV/atom,
BaBr$_{2}$O,0.7176,eV/atom,
ReH$_{4}$NO$_{4}$,4.0859000000000005,eV/atom,
LaNi$_{2}$B$_{2}$C,0.0,eV/atom,
EuTa$_{2}$O$_{6}$,0.01639999999999997,eV/atom,
Yb$_{2}$CdPd$_{2}$,0.0,eV/atom,
NbSnRh,0.0,eV/atom,
Sm(Mn$_{2}$Ni)$_{4}$,0.0,eV/atom,
PNF$_{2}$,5.5601,eV/atom,FN1P(F)(F)=NPNPNP(F)(F)(F)N(F)P1(F)(F)F
Ba$_{2}$Yb(CuO$_{2}$)$_{4}$,0.0,eV/atom,
Na$_{3}$H(SO$_{4}$)$_{2}$,5.1609,eV/atom,
K$_{2}$PtCl$_{6}$,1.8478,eV/atom,
BC$_{7}$,0.0,eV/atom,
NaH$_{3}$SO$_{5}$,5.3485000000000005,eV/atom,
BaY$_{6}$Si$_{3}$B$_{6}$(O$_{12}$F)$_{2}$,5.2315000000000005,eV/atom,
YC,0.0,eV/atom,
Fe$_{11}$Si$_{5}$,0.0,eV/atom,
KHfH$_{2}$OF$_{5}$,6.6561,eV/atom,
Dy(Al$_{2}$Cr)$_{4}$,0.0,eV/atom,
GeCl$_{4}$,4.1254,eV/atom,
Sn$_{3}$Ru$_{2}$,0.0,eV/atom,
CaPSe$_{3}$,2.1236,eV/atom,
KH$_{9}$O$_{5}$,4.7217,eV/atom,[K+].[OH-].O.O.O.O
Nb$_{6}$Zn$_{7}$,0.0,eV/atom,
CoAgPO$_{4}$,1.7099000000000002,eV/atom,
SrC$_{4}$S$_{4}$N$_{2}$(O$_{2}$F$_{3}$)$_{4}$,6.240200000000001,eV/atom,[Sr+2].O=S(=O)([N-]S(=O)(=O)C(F)(F)F)C(F)(F)F.O=S(=O)([N-]S(=O)(=O)C(F)(F)F)C(F)(F)F
Sn$_{3}$N$_{4}$,0.23079999999999945,eV/atom,
RbAlF$_{4}$,6.8327,eV/atom,
ZnFe$_{2}$As$_{2}$(HO$_{5}$)$_{2}$,2.3831,eV/atom,
CdO,0.0,eV/atom,
CsSm$_{2}$CuSe$_{4}$,0.8770000000000002,eV/atom,
GdPPd,0.0,eV/atom,
Na$_{3}$AuO$_{2}$,1.974,eV/atom,
Nd$_{5}$Si$_{3}$,0.0,eV/atom,
K$_{2}$Ga$_{3}$CuSe$_{6}$,1.0807000000000002,eV/atom,
Ba$_{3}$(TaS$_{4}$)$_{2}$,0.7451999999999996,eV/atom,
Si$_{2}$O,0.0,eV/atom,
Na$_{2}$O$_{2}$,0.0,eV/atom,
SmAlPt,0.0,eV/atom,
Rb$_{2}$SiO$_{3}$,3.4349,eV/atom,
KVP$_{2}$O$_{7}$,2.0684,eV/atom,
RbYS$_{2}$,2.3166,eV/atom,
CuSeO$_{3}$,0.0,eV/atom,
ReF$_{7}$,1.9773,eV/atom,
Rb$_{3}$NdN$_{6}$,0.17930000000000001,eV/atom,
WO$_{2}$,1.3489000000000004,eV/atom,
TbPRu$_{2}$C,0.0,eV/atom,
Tb$_{2}$S$_{3}$,0.5791000000000004,eV/atom,
MnAlFe$_{2}$,0.0,eV/atom,
TiFeSb,0.0,eV/atom,
Sm$_{15}$(Ga$_{11}$Ni$_{13}$)$_{4}$,0.0,eV/atom,
YbAsPd,0.0,eV/atom,
ThZn$_{2}$,0.0,eV/atom,
K$_{3}$P,0.2126,eV/atom,
NaLa(PO$_{3}$)$_{4}$,5.095599999999999,eV/atom,[Na+].[La+3].O=P([O-])([O-])OP(=O)([O-])OP(=O)([O-])OP(=O)(O)O
Mn$_{2}$Ga$_{5}$,0.0,eV/atom,
UMoO$_{6}$,2.1682,eV/atom,
Tb$_{2}$EuSe$_{4}$,0.0,eV/atom,
Ni$_{2}$Ag$_{3}$O$_{4}$,0.0,eV/atom,
KZrS$_{2}$,0.0,eV/atom,
W(CO)$_{6}$,2.9753,eV/atom,O=C=[W](=C=O)(=C=O)(=C=O)(=C=O)=C=O
K$_{2}$B$_{5}$H$_{5}$O$_{11}$,4.8926,eV/atom,
TiH,0.0,eV/atom,
EuSi$_{2}$(NO)$_{2}$,0.3055999999999992,eV/atom,
Ce$_{3}$Ga,0.0,eV/atom,