formula,Property Band Gap,Property Band Gap units,Property Band gap,Property Band gap units,Temperature (Property Band gap),Temperature (Property Band gap) units,Property Color,Temperature (Property Color),Temperature (Property Color) units
RbDy$_{2}$Cl$_{7}$,4.5280000000000005,eV,,,,,,,
Au$_{2}$Se$_{2}$O$_{7}$,1.1265999999999998,eV,,,,,,,
SCl,2.8632999999999997,eV,,,,,,,
SBr,2.2294,eV,,,,,,,
YbCo$_{2}$,0.0,eV,,,,,,,
NaFeS$_{2}$,0.0,eV,,,,,,,
Ba$_{3}$Te$_{4}$O$_{11}$,3.2308999999999997,eV,,,,,,,
USCl$_{9}$,0.564,eV,,,,,,,
Fe$_{2}$MoP$_{12}$,0.0045999999999999375,eV,,,,,,,
Ni$_{17}$S$_{18}$,0,eV,,,,,,,
Na$_{4}$Ge$_{2}$Te$_{5}$,0.9849999999999999,eV,,,,,,,
Na$_{4}$SnTe$_{4}$,0.9417,eV,,,,,,,
SbAsO$_{3}$,3.5024999999999995,eV,,,,,,,
Rb$_{2}$PtI$_{6}$,0.5131000000000001,eV,,,,,,,
K$_{3}$NO$_{3}$,0.20179999999999998,eV,,,,,,,
In$_{5}$Cl$_{9}$,2.9777,eV,,,,,,,
TiCl$_{2}$,0.0,eV,,,,,,,
VCl$_{3}$,0.0,eV,,,,,,,
AlSbI$_{6}$,2.2540999999999998,eV,,,,,,,
HoFe$_{5}$,0.0,eV,,,,,,,
La$_{3}$ReO$_{8}$,1.8544999999999998,eV,,,,,,,
LiGdCl$_{4}$,2.136,eV,,,,,,,
H$_{7}$NF$_{4}$,7.2568,eV,,,,,,,
H$_{8}$NF$_{5}$,7.3713,eV,,,,,,,
H$_{11}$NF$_{8}$,7.2099,eV,,,,,,,
K$_{2}$GeTe$_{4}$,1.0714000000000001,eV,,,,,,,
Na$_{2}$S$_{5}$,1.7602000000000002,eV,,,,,,,
SCl$_{2}$,2.0564999999999998,eV,,,,,,,
Ba(SbS$_{2}$)$_{2}$,1.4872999999999998,eV,,,,,,,
Nb(PS$_{4}$)$_{2}$,1.4379999999999997,eV,,,,,,,
C(Se$_{2}$Br)$_{2}$,1.4970999999999999,eV,,,,,,,
Gd$_{3}$CCl$_{3}$,0.0,eV,,,,,,,
Ba$_{2}$As$_{2}$S$_{5}$,1.3668,eV,,,,,,,
NbXeF$_{11}$,2.648,eV,,,,,,,
Hg$_{2}$IO,0.9990999999999999,eV,,,,,,,
Yb$_{2}$O$_{3}$,0.0,eV,,,,,,,
P$_{2}$Pb$_{3}$S$_{8}$,2.2581,eV,,,,,,,
H$_{8}$S$_{5}$N$_{2}$,2.1413,eV,,,,,,,
SiBi$_{2}$O$_{5}$,2.7077,eV,,,,,,,
Rb$_{2}$PdCl$_{6}$,1.2868,eV,,,,,,,
LiGa$_{5}$O$_{8}$,2.5222999999999995,eV,,,,,,,
Er$_{4}$Ni$_{13}$C$_{4}$,0.0,eV,,,,,,,
Bi$_{9}$I$_{2}$,0.0,eV,,,,,,,
MoS$_{2}$,1.2294,eV,,,,,,,
BaNb$_{2}$O$_{6}$,2.6143,eV,,,,,,,
Ho$_{3}$Ni$_{19}$B$_{10}$,0.0,eV,,,,,,,
Ca(AuF$_{6}$)$_{2}$,1.5298999999999998,eV,,,,,,,
LaNb$_{5}$O$_{14}$,2.1536,eV,,,,,,,
NaGdCl$_{4}$,2.47,eV,,,,,,,
P(HO)$_{3}$,7.0934,eV,,,,,,,
K$_{4}$Be$_{3}$O$_{5}$,3.2092,eV,,,,,,,
As(BrF$_{2}$)$_{3}$,1.5927,eV,,,,,,,
Nd$_{2}$Tl,0.0,eV,,,,,,,
Ca$_{3}$C$_{3}$Cl$_{2}$,1.2768000000000002,eV,,,,,,,
Na$_{3}$P$_{6}$N$_{11}$,3.8178000000000005,eV,,,,,,,
K$_{2}$PdF$_{4}$,1.8732000000000002,eV,,,,,,,
Ba$_{4}$P$_{2}$O,1.0423999999999998,eV,,,,,,,
K$_{3}$BrO,0.889,eV,,,,,,,
Th$_{6}$CoBr$_{15}$,0.6808999999999998,eV,,,,,,,
Th$_{6}$CBr$_{14}$,0.6522000000000001,eV,,,,,,,
Ca$_{5}$Ni$_{15}$B$_{4}$,0.0,eV,,,,,,,
K$_{3}$IO,1.0263999999999998,eV,,,,,,,
Pd(SCl$_{3}$)$_{2}$,1.6115,eV,,,,,,,
Pd(SeCl$_{3}$)$_{2}$,1.7033,eV,,,,,,,
Te$_{2}$PdCl$_{10}$,1.5543,eV,,,,,,,
NaSbCl$_{6}$,2.0358,eV,,,,,,,
NaNbCl$_{6}$,2.2372,eV,,,,,,,
NaTaCl$_{6}$,2.902,eV,,,,,,,
YbAu,0.0,eV,,,,,,,
Sb$_{4}$F$_{15}$,3.7376,eV,,,,,,,
TaClF$_{8}$,3.3874,eV,,,,,,,
FeSeCl$_{7}$,1.3206,eV,,,,,,,
AuSCl$_{5}$,1.7517999999999998,eV,,,,,,,
BiClF$_{8}$,2.0644,eV,,,,,,,
SiAg$_{2}$O$_{3}$,0.6345999999999998,eV,,,,,,,
KH$_{9}$O$_{5}$,4.7217,eV,,,,,,,
RbInI$_{4}$,2.5376000000000003,eV,,,,,,,
TiF$_{2}$,0.45179999999999954,eV,,,,,,,
LaNb$_{7}$O$_{19}$,2.126,eV,,,,,,,
Sr$_{4}$(PPd)$_{5}$,0.0,eV,,,,,,,
K$_{3}$NO$_{4}$,3.6478,eV,,,,,,,
CsH$_{7}$O$_{4}$,4.5889999999999995,eV,,,,,,,
Na$_{3}$ReO$_{5}$,2.4287,eV,,,,,,,
ZrFeCl$_{6}$,0.741,eV,,,,,,,
IrS$_{3}$Cl$_{11}$,1.8442,eV,,,,,,,
Nb$_{4}$O$_{5}$,0.0,eV,,,,,,,
TiBr$_{3}$,0.01519999999999988,eV,,,,,,,
Lu$_{6}$Ge$_{4}$O$_{17}$,3.7402,eV,,,,,,,
Tl$_{2}$PS$_{3}$,2.2407,eV,,,,,,,
TlCdCl$_{3}$,3.2946999999999997,eV,,,,,,,
TlCdBr$_{3}$,2.7459999999999996,eV,,,,,,,
TmSe,0.0,eV,,,,,,,
HfFeCl$_{6}$,0.8491,eV,,,,,,,
Rb$_{3}$Sb$_{2}$Br$_{9}$,1.9083999999999999,eV,,,,,,,
LaSe$_{2}$,1.3399,eV,,,,,,,
Hg$_{2}$AsCl$_{2}$,1.3038999999999998,eV,,,,,,,
Ni$_{11}$As$_{8}$,0.0,eV,,,,,,,
Ag$_{7}$Te$_{4}$,0.0,eV,,,,,,,
Bi$_{4}$Te$_{3}$,0.0,eV,,,,,,,
NdP,0.0,eV,,,,,,,
TlSbS$_{2}$,1.6534,eV,,,,,,,
MgTi$_{2}$O$_{5}$,2.7175,eV,,,,,,,
MnCl$_{2}$,1.7923,eV,,,,,,,
CaAl$_{12}$O$_{19}$,4.319500000000001,eV,,,,,,,
Tl(CuO)$_{2}$,0.0,eV,,,,,,,
RbLiBr$_{2}$,4.322,eV,,,,,,,
Ba$_{4}$Sb$_{4}$Se$_{11}$,1.1995999999999998,eV,,,,,,,
AlPd$_{2}$,0.0,eV,,,,,,,
CSO,4.8952,eV,,,,,,,
ZrI$_{2}$,0.07629999999999981,eV,,,,,,,
Tl$_{6}$SCl$_{4}$,1.8016,eV,,,,,,,
RbLiCl$_{2}$,5.1482,eV,,,,,,,
TlBO$_{2}$,3.0162999999999993,eV,,,,,,,
AgTe$_{3}$,0.0,eV,,,,,,,
K$_{2}$PtI$_{6}$,0.8659999999999999,eV,,,,,,,
CdI$_{2}$,2.3655999999999997,eV,,,,,,,
ErPd$_{3}$,0.0,eV,,,,,,,
Li$_{2}$MnBr$_{4}$,1.7798000000000003,eV,,,,,,,
Ta$_{2}$Zn$_{3}$O$_{8}$,3.5103000000000004,eV,,,,,,,
Ba$_{5}$(GaS$_{4}$)$_{2}$,2.5327,eV,,,,,,,
LiBiO$_{2}$,2.0370000000000004,eV,,,,,,,
LiRuO$_{2}$,0.0,eV,,,,,,,
LaHO,2.4324000000000003,eV,,,,,,,
V$_{2}$Se$_{9}$,0.7130000000000001,eV,,,,,,,
SOF$_{2}$,5.2887,eV,,,,,,,
Lu$_{2}$S$_{3}$,2.5704000000000002,eV,,,,,,,
Na$_{4}$SnO$_{3}$,1.8885999999999998,eV,,,,,,,
KH$_{3}$O$_{2}$,4.3804,eV,,,,,,,
RbH$_{3}$O$_{2}$,4.2519,eV,,,,,,,
P$_{2}$Pd,0.4579000000000004,eV,,,,,,,
Na$_{7}$Al$_{2}$Sb$_{5}$,0.29590000000000005,eV,,,,,,,
PtI$_{3}$,0.34019999999999984,eV,,,,,,,
Cs$_{2}$SbBr$_{6}$,0,eV,,,,,,,
YCo$_{5}$,0.0,eV,,,,,,,
KCuS,1.8615000000000002,eV,,,,,,,
Sn$_{5}$BF$_{13}$,4.1558,eV,,,,,,,
K$_{3}$CuO$_{2}$,1.5215999999999998,eV,,,,,,,
Ba$_{3}$In$_{2}$F$_{12}$,4.5144,eV,,,,,,,
Rb$_{2}$PrCl$_{5}$,4.8509,eV,,,,,,,
K$_{2}$PrBr$_{5}$,4.007,eV,,,,,,,
K$_{2}$PrI$_{5}$,3.031,eV,,,,,,,
Na$_{2}$GeSe$_{3}$,1.6128,eV,,,,,,,
Gd$_{2}$NCl$_{3}$,2.1399999999999997,eV,,,,,,,
H$_{4}$I$_{3}$N,1.811,eV,,,,,,,
RbTiCl$_{3}$,0.0,eV,,,,,,,
CsTiCl$_{3}$,0.0,eV,,,,,,,
Na$_{3}$Sb$_{5}$F$_{18}$,4.3786,eV,,,,,,,
ReBi$_{3}$O$_{8}$,2.7447,eV,,,,,,,
BaGe$_{2}$O$_{5}$,1.8132000000000001,eV,,,,,,,
SiH$_{3}$F,6.169499999999999,eV,,,,,,,
CdTeO$_{3}$,3.0793,eV,,,,,,,
Ge(SF$_{6}$)$_{2}$,4.9563,eV,,,,,,,
Na$_{4}$GeSe$_{4}$,1.9803,eV,,,,,,,
SnPCl$_{9}$,2.4074999999999998,eV,,,,,,,
Sb$_{11}$F$_{43}$,3.5092999999999996,eV,,,,,,,
CsIO$_{3}$,3.0911999999999997,eV,,,,,,,
Ba$_{3}$GaSb$_{3}$,0.34189999999999987,eV,,,,,,,
Nd$_{3}$S$_{2}$Br$_{5}$,2.9614000000000003,eV,,,,,,,
USe$_{2}$O$_{7}$,2.1387,eV,,,,,,,
OsBr$_{4}$,0.0,eV,,,,,,,
K$_{4}$CdP$_{2}$,0.8246,eV,,,,,,,
Na$_{3}$SiSe$_{4}$,1.7548000000000001,eV,,,,,,,
Ca$_{3}$(AlAs$_{2}$)$_{2}$,1.1222999999999996,eV,,,,,,,
MnBr$_{2}$,1.5958,eV,,,,,,,
Ta$_{2}$NiS$_{5}$,0.0,eV,,,,,,,
FePd,0.0,eV,,,,,,,
NdCl$_{2}$,0.0,eV,,,,,,,
Ba$_{7}$Ga$_{4}$Sb$_{9}$,0.18219999999999992,eV,,,,,,,
Rb$_{4}$CdBr$_{6}$,3.1975,eV,,,,,,,
K$_{3}$LiSi$_{4}$,1.5221999999999998,eV,,,,,,,
NaCu$_{5}$S$_{3}$,0.0,eV,,,,,,,
HgTeO$_{3}$,2.2299,eV,,,,,,,
PtI$_{2}$,1.2250999999999999,eV,,,,,,,
Cr$_{2}$Se$_{3}$,0.0,eV,,,,,,,
Pt$_{3}$I$_{8}$,0.7069999999999999,eV,,,,,,,
Sc$_{7}$CI$_{12}$,0.0,eV,,,,,,,
Pd$_{2}$Cl$_{2}$O,0.6905999999999999,eV,,,,,,,
Sr$_{3}$(InP$_{2}$)$_{2}$,0.5902000000000003,eV,,,,,,,
LiGaBr$_{4}$,3.4374000000000002,eV,,,,,,,
LiGaBr$_{3}$,2.956,eV,,,,,,,
RbI$_{3}$,1.8571,eV,,,,,,,
TlI$_{3}$,1.6813,eV,,,,,,,
IrS$_{2}$,0.5311999999999992,eV,,,,,,,
TeAuCl$_{7}$,1.5352999999999999,eV,,,,,,,
CsTlI$_{4}$,1.238,eV,,,,,,,
Tl$_{4}$SiSe$_{4}$,1.4648000000000003,eV,,,,,,,
Li$_{3}$P$_{7}$,1.7927,eV,,,,,,,
CaPPt,0.0,eV,,,,,,,
CaAsPt,0.0,eV,,,,,,,
LiGaCl$_{4}$,4.4866,eV,,,,,,,
Zr$_{6}$CI$_{14}$,0.7934999999999999,eV,,,,,,,
Zr$_{6}$CI$_{12}$,0.2801,eV,,,,,,,
SrSe$_{2}$O$_{5}$,3.2807999999999997,eV,,,,,,,
K$_{3}$Al$_{2}$As$_{3}$,1.1862,eV,,,,,,,
Ba$_{2}$As$_{2}$Se$_{5}$,1.0236999999999998,eV,,,,,,,
H$_{2}$NO$_{2}$,3.3779,eV,,,,,,,
Dy$_{2}$GeO$_{5}$,3.9954,eV,,,,,,,
YSiRh$_{2}$,0.0,eV,,,,,,,
NaTe,0.5325000000000002,eV,,,,,,,
Na$_{4}$Ge$_{2}$Se$_{5}$,1.6662,eV,,,,,,,
U$_{6}$Cu$_{2}$S$_{13}$,0.0,eV,,,,,,,
NbHg$_{3}$F$_{6}$,0.0,eV,,,,,,,
NbAlCl$_{8}$,2.0379,eV,,,,,,,
Dy$_{5}$Si$_{3}$,0.0,eV,,,,,,,
Na$_{3}$CrCl$_{6}$,1.7196,eV,,,,,,,
Al$_{2}$CdCl$_{8}$,3.7046,eV,,,,,,,
Rb$_{2}$CdO$_{2}$,1.3087,eV,,,,,,,
Na$_{3}$AuO$_{2}$,1.974,eV,,,,,,,
Gd$_{2}$B$_{5}$,0.0,eV,,,,,,,
TlAuCl$_{4}$,1.7616999999999998,eV,,,,,,,
GeH$_{3}$Cl,4.7492,eV,,,,,,,
PrCo$_{5}$,0.0,eV,,,,,,,
Ce$_{15}$B$_{8}$N$_{25}$,0,eV,,,,,,,
K$_{2}$Zn$_{3}$O$_{4}$,1.4082999999999999,eV,,,,,,,
AuSeCl$_{7}$,1.7274,eV,,,,,,,
BaP$_{3}$Pt$_{2}$,0.12739999999999974,eV,,,,,,,
S$_{5}$N$_{5}$Cl,1.4863,eV,,,,,,,
Ta$_{2}$AgF$_{12}$,0.7143000000000002,eV,,,,,,,
CuAuF$_{5}$,0.0,eV,,,,,,,
CsGeI$_{3}$,1.589,eV,,,,,,,
HfFeSi$_{2}$,0.0,eV,,,,,,,
UNi$_{5}$,0.00709999999999944,eV,,,,,,,
Rb$_{3}$TlO$_{3}$,1.4607999999999999,eV,,,,,,,
Cs$_{3}$InO$_{3}$,2.1174,eV,,,,,,,
K$_{4}$ZnO$_{3}$,1.6945999999999999,eV,,,,,,,
KNaS,2.4851,eV,,,,,,,
GaBr$_{2}$,3.1591,eV,,,,,,,
Sc$_{5}$(Re$_{2}$Si$_{3}$)$_{4}$,0.0,eV,,,,,,,
PAuCl$_{8}$,1.3333,eV,,,,,,,
CeC$_{2}$,0.0,eV,,,,,,,
CS$_{3}$N$_{4}$,1.9381,eV,,,,,,,
SiCl$_{4}$,5.5541,eV,,,,,,,
Sr$_{5}$(AlSb$_{3}$)$_{2}$,0.9150999999999998,eV,,,,,,,
P$_{3}$Se$_{4}$I,1.6437000000000002,eV,,,,,,,
Tl$_{2}$PSe$_{3}$,1.5420999999999996,eV,,,,,,,
B$_{6}$P,2.4757,eV,,,,,,,
Sr$_{4}$Bi$_{6}$Se$_{13}$,0.48870000000000013,eV,,,,,,,
H$_{2}$CS$_{3}$,1.9810999999999999,eV,,,,,,,
AlCo,0.0,eV,,,,,,,
PuIr$_{2}$,0.0,eV,,,,,,,
P$_{3}$Ru,1.1445999999999996,eV,,,,,,,
Zn(Bi$_{3}$O$_{5}$)$_{4}$,0.0,eV,,,,,,,
S(ClO)$_{2}$,3.6538,eV,,,,,,,
SCl$_{2}$O,3.6424,eV,,,,,,,
SBr$_{2}$O,2.732,eV,,,,,,,
KTcCl$_{3}$,1.6961,eV,,,,,,,
ScSi$_{2}$,0.0,eV,,,,,,,
ThP$_{7}$,0.0,eV,,,,,,,
Ho$_{2}$Ni$_{12}$P$_{7}$,0.0,eV,,,,,,,
Na$_{2}$(GaSb)$_{3}$,0.19130000000000003,eV,,,,,,,
Nd$_{2}$GeO$_{5}$,2.4351000000000003,eV,,,,,,,
Ce$_{3}$Sn$_{7}$,0.0,eV,,,,,,,
K$_{2}$TeSe$_{3}$,1.7896,eV,,,,,,,
SrH$_{4}$O$_{3}$,4.3444,eV,,,,,,,
Cs$_{2}$HgI$_{4}$,2.0398,eV,,,,,,,
Ga$_{2}$TeSe$_{2}$,1.6077000000000001,eV,,,,,,,
K$_{4}$P$_{3}$,0.0,eV,,,,,,,
B$_{2}$PCl$_{2}$,3.8135,eV,,,,,,,
K$_{3}$Nb$_{2}$Se$_{11}$,1.0590000000000002,eV,,,,,,,
Na$_{2}$PrO$_{3}$,0.0,eV,,,,,,,
SnF$_{2}$,3.275,eV,,,,,,,
TbNa$_{2}$O$_{3}$,0.0,eV,,,,,,,
Sb(IF$_{3}$)$_{2}$,0.559,eV,,,,,,,
Tl$_{3}$Cd$_{2}$I$_{7}$,1.8253,eV,,,,,,,
RbClO$_{4}$,5.4759,eV,,,,,,,
KFeCl$_{4}$,1.2994,eV,,,,,,,
RuClF$_{8}$,1.1202999999999999,eV,,,,,,,
KSc$_{2}$F$_{7}$,5.706099999999999,eV,,,,,,,
ThSi$_{2}$,0.0,eV,,,,,,,
TlAs$_{5}$S$_{8}$,1.5672000000000001,eV,,,,,,,
Mg(BiO$_{3}$)$_{2}$,0.0019999999999997797,eV,,,,,,,
DyCl$_{3}$,3.8943,eV,,,,,,,
TbCsF$_{5}$,0.0,eV,,,,,,,
SbPt,0.0,eV,,,,,,,
Li$_{4}$P$_{2}$O$_{7}$,5.6108,eV,,,,,,,
Fe$_{3}$W$_{3}$N,0.0,eV,,,,,,,
CsAuI$_{3}$,0.7272000000000001,eV,,,,,,,
Hg$_{2}$P$_{2}$O$_{7}$,1.4797,eV,,,,,,,
Sn$_{15}$Os$_{3}$O$_{14}$,1.5080999999999998,eV,,,,,,,
Ba$_{2}$Ta$_{15}$O$_{32}$,0,eV,,,,,,,
ErSeI,2.309,eV,,,,,,,
Br$_{2}$O,1.3643999999999998,eV,,,,,,,
LiNb$_{3}$Cl$_{8}$,0.9318,eV,,,,,,,
Re$_{3}$(TeI)$_{7}$,0.8462999999999998,eV,,,,,,,
Cs$_{2}$Cu$_{5}$Se$_{4}$,0.0,eV,,,,,,,
KAg$_{5}$S$_{3}$,0.6946999999999999,eV,,,,,,,
ErB$_{4}$,0.0,eV,,,,,,,
Ta$_{7}$(Te$_{12}$I$_{5}$)$_{2}$,0,eV,,,,,,,
Li$_{3}$AsS$_{3}$,2.2848999999999995,eV,,,,,,,
Er$_{10}$Ru$_{10}$C$_{19}$,0.0,eV,,,,,,,
CClF$_{3}$,6.6055,eV,,,,,,,
S$_{7}$(N$_{3}$O$_{4}$)$_{2}$,2.0213,eV,,,,,,,
H$_{2}$Pb$_{3}$O$_{4}$,2.8391999999999995,eV,,,,,,,
SrBiSe$_{3}$,0.4969000000000001,eV,,,,,,,
Sr(ClO$_{3}$)$_{2}$,5.224,eV,,,,,,,
NaTe$_{3}$,0.5092000000000003,eV,,,,,,,
Sc$_{2}$CCl$_{2}$,0.8824000000000001,eV,,,,,,,
Pu$_{5}$Ir$_{3}$,0.0,eV,,,,,,,
Sc$_{2}$NCl$_{2}$,0.0,eV,,,,,,,
Ti(ClO$_{4}$)$_{4}$,2.9081,eV,,,,,,,
WBr$_{6}$,1.0697999999999999,eV,,,,,,,
Sb$_{5}$IO$_{7}$,2.4399,eV,,,,,,,
Cs$_{2}$Ni$_{3}$S$_{4}$,0.8488000000000002,eV,,,,,,,
Ge$_{5}$(Te$_{4}$As)$_{2}$,0.21989999999999998,eV,,,,,,,
CuPtF$_{6}$,0.0724,eV,,,,,,,
Ca$_{5}$(GaN$_{2}$)$_{2}$,0.0,eV,,,,,,,
US$_{2}$,0.0,eV,,,,,,,
Tl$_{3}$BSe$_{3}$,1.226,eV,,,,,,,
Cu$_{2}$SO$_{4}$,1.5322,eV,,,,,,,
ZrBr$_{2}$,0.0,eV,,,,,,,
K$_{2}$UCl$_{5}$,0.1198999999999999,eV,,,,,,,
Cs$_{2}$CrCl$_{4}$,0.0,eV,,,,,,,
Al$_{10}$Ge$_{2}$O$_{19}$,2.1205,eV,,,,,,,
B$_{2}$Os,0.0,eV,,,,,,,
UTe$_{5}$,0.0,eV,,,,,,,
K$_{2}$(NbCl$_{3}$)$_{3}$,1.0867999999999998,eV,,,,,,,
Al$_{10}$Si$_{2}$O$_{19}$,3.3810000000000002,eV,,,,,,,
Ba(AlTe$_{2}$)$_{2}$,1.5453999999999999,eV,,,,,,,
La$_{8}$Nb$_{7}$S$_{22}$,0.0,eV,,,,,,,
Cd(HO)$_{2}$,0.9847,eV,,,,,,,
Ta$_{4}$SiTe$_{4}$,0.02859999999999996,eV,,,,,,,
VSb$_{2}$,0.0,eV,,,,,,,
Li$_{3}$BiO$_{3}$,2.4379,eV,,,,,,,
Zr$_{2}$P,0.0,eV,,,,,,,
Ba(ClO$_{3}$)$_{2}$,5.268700000000001,eV,,,,,,,
Pb(ClO$_{3}$)$_{2}$,4.3237000000000005,eV,,,,,,,
Ba(BrO$_{3}$)$_{2}$,4.3347,eV,,,,,,,
LuMnGe$_{2}$,0.0,eV,,,,,,,
Tl$_{6}$SeI$_{4}$,1.6895000000000002,eV,,,,,,,
Tl$_{6}$SBr$_{4}$,1.8131,eV,,,,,,,
C$_{3}$N$_{4}$,2.8993,eV,,,,,,,
Rb$_{2}$SnTe$_{5}$,0.5848,eV,,,,,,,
Gd$_{2}$CBr,0.0,eV,,,,,,,
Li$_{2}$Ta$_{3}$N$_{5}$,0.0,eV,,,,,,,
KInBr$_{3}$,2.2777,eV,,,,,,,
GaN,0.3945999999999996,eV,,,,,,,
K$_{2}$Ta$_{15}$O$_{32}$,0.06700000000000017,eV,,,,,,,
Rb$_{2}$Ta$_{15}$O$_{32}$,0.05679999999999996,eV,,,,,,,
CrInBr$_{3}$,0.49129999999999985,eV,,,,,,,
CaInBr$_{3}$,3.136,eV,,,,,,,
Ca$_{2}$Se$_{3}$O$_{8}$,3.4251,eV,,,,,,,
BaSe$_{2}$O$_{5}$,3.3781000000000003,eV,,,,,,,
As$_{2}$PbO$_{4}$,2.8420999999999994,eV,,,,,,,
SiH$_{3}$I,4.2153,eV,,,,,,,
Rb$_{3}$Mo$_{15}$Se$_{17}$,0.0,eV,,,,,,,
Bi$_{2}$P$_{4}$O$_{13}$,4.5172,eV,,,,,,,
Na$_{3}$ErCl$_{6}$,5.2280999999999995,eV,,,,,,,
Cs$_{4}$ZrO$_{4}$,2.7473,eV,,,,,,,
Sm$_{4}$Cl$_{6}$O,0.0,eV,,,,,,,
RbLiO,2.2542999999999997,eV,,,,,,,
Eu$_{4}$Cl$_{6}$O,0.8845999999999998,eV,,,,,,,
Li$_{8}$GeO$_{6}$,3.4877000000000002,eV,,,,,,,
Li$_{8}$SiO$_{6}$,4.4497,eV,,,,,,,
Hf$_{2}$Ag$_{3}$F$_{14}$,0.15270000000000006,eV,,,,,,,
H$_{8}$CN$_{6}$,3.6266,eV,,,,,,,
Ca$_{2}$IN,2.3484999999999996,eV,,,,,,,
Ca$_{2}$AsI,1.5571000000000002,eV,,,,,,,
RbSF$_{5}$,4.6838,eV,,,,,,,
Na$_{3}$CuO$_{3}$,0.7792000000000001,eV,,,,,,,
Ag$_{2}$PdCl$_{4}$,1.1217000000000001,eV,,,,,,,
RbGeBr$_{3}$,1.9935,eV,,,,,,,
Na$_{6}$Be$_{8}$O$_{11}$,3.6365,eV,,,,,,,
Mn$_{4}$Al$_{11}$,0.0,eV,,,,,,,
RbAsSe$_{2}$,1.6284999999999998,eV,,,,,,,
CsAsSe$_{2}$,1.4159,eV,,,,,,,
Rb$_{4}$PbBr$_{6}$,3.9028,eV,,,,,,,
NaTiSe$_{4}$,0.9159999999999999,eV,,,,,,,
LiBiF$_{4}$,4.8473,eV,,,,,,,
Rb$_{3}$CuO$_{2}$,1.4327,eV,,,,,,,
NaInBr$_{4}$,2.8099,eV,,,,,,,
NaInI$_{4}$,2.4494,eV,,,,,,,
La$_{2}$Br$_{5}$,0.29660000000000064,eV,,,,,,,
LaBr$_{2}$,0.5867999999999998,eV,,,,,,,
KPbO$_{2}$,0.5902000000000003,eV,,,,,,,
W(S$_{4}$Cl$_{3}$)$_{2}$,0.6466000000000001,eV,,,,,,,
RbBrF$_{4}$,3.3548,eV,,,,,,,
CsI$_{3}$F$_{16}$,4.2242999999999995,eV,,,,,,,
Hg$_{3}$(TeI)$_{2}$,1.3859000000000001,eV,,,,,,,
ZrO$_{2}$,3.4737000000000005,eV,,,,,,,
Y$_{2}$NCl$_{3}$,2.1398,eV,,,,,,,
CsB$_{3}$H$_{8}$,5.9585,eV,,,,,,,
Si$_{2}$NCl$_{5}$,5.0863,eV,,,,,,,
Tl$_{2}$CuI$_{3}$,1.5759999999999996,eV,,,,,,,
Nb$_{3}$ICl$_{6}$,1.0699,eV,,,,,,,
AgXeF$_{9}$,1.5421999999999998,eV,,,,,,,
BaH$_{8}$O$_{5}$,4.8099,eV,,,,,,,
Na$_{2}$BeO$_{2}$,2.7941000000000003,eV,,,,,,,
Rb$_{3}$Ge$_{2}$Br$_{7}$,2.8982,eV,,,,,,,
Hg$_{4}$As$_{2}$I$_{3}$,0.6587000000000001,eV,,,,,,,
Na$_{4}$HgP$_{2}$,0.8759000000000001,eV,,,,,,,
Li$_{7}$Br$_{3}$O$_{2}$,4.2454,eV,,,,,,,
Li$_{3}$BrO,4.277500000000001,eV,,,,,,,
KNaSe,2.0161,eV,,,,,,,
Na$_{5}$InTe$_{4}$,1.2161,eV,,,,,,,
Na$_{4}$Br$_{2}$O,1.9830999999999999,eV,,,,,,,
YbSe,1.9621,eV,,,,,,,
NbBr$_{5}$,1.5583,eV,,,,,,,
Na$_{3}$ClO,2.0299,eV,,,,,,,
NaLiSe,2.4375,eV,,,,,,,
K$_{3}$AuSe$_{13}$,0.7188000000000001,eV,,,,,,,
UReB$_{3}$,0.0,eV,,,,,,,
Ga$_{3}$Te$_{3}$I,1.2590999999999997,eV,,,,,,,
CaTl,0.0,eV,,,,,,,
CsAgCl$_{3}$,0.0,eV,,,,,,,
ThTa$_{2}$O$_{7}$,2.6556000000000006,eV,,,,,,,
Na(LiSi$_{2}$)$_{3}$,0.12260000000000026,eV,,,,,,,
LiBPt$_{3}$,0.0,eV,,,,,,,
NaBPt$_{3}$,0.0,eV,,,,,,,
NbTe$_{5}$Pd,0.0,eV,,,,,,,
In$_{3}$Sb$_{5}$O$_{12}$,2.4328000000000003,eV,,,,,,,
Y$_{3}$(Fe$_{31}$B$_{7}$)$_{2}$,0,eV,,,,,,,
Zr$_{3}$SO$_{9}$,3.8054999999999994,eV,,,,,,,
Li$_{4}$Ge$_{5}$O$_{12}$,2.9262000000000006,eV,,,,,,,
LaSO,1.522899999999999,eV,,,,,,,
K$_{4}$Br$_{2}$O,0.9912,eV,,,,,,,
Li$_{3}$FeN$_{2}$,0.0,eV,,,,,,,
Ta$_{5}$B$_{6}$,0,eV,,,,,,,
CeCd$_{3}$,0.0,eV,,,,,,,
Na$_{3}$BN$_{2}$,1.6479,eV,,,,,,,
Ga(Bi$_{3}$O$_{5}$)$_{4}$,2.3575999999999997,eV,,,,,,,
Re(TeCl$_{6}$)$_{2}$,0.0,eV,,,,,,,
KI$_{3}$F$_{16}$,4.1785,eV,,,,,,,
Os$_{2}$(CO)$_{7}$,1.9918,eV,,,,,,,
Li$_{4}$FeN$_{2}$,0.0,eV,,,,,,,
Gd$_{2}$CCl,0.0,eV,,,,,,,
Tl$_{2}$GeTe$_{5}$,0.0,eV,,,,,,,
ThB$_{2}$O$_{5}$,4.8186,eV,,,,,,,
Ba$_{3}$AlF$_{9}$,6.4938,eV,,,,,,,
H$_{9}$CN$_{9}$,4.5312,eV,,,,,,,
CaNiN,0.0,eV,,,,,,,
AsBr$_{5}$F$_{6}$,1.6202999999999999,eV,,,,,,,
NaTi$_{8}$O$_{13}$,0.0,eV,,,,,,,
K$_{2}$CuF$_{4}$,0.339,eV,,,,,,,
CsBr$_{2}$F,1.7459000000000002,eV,,,,,,,
Cs$_{2}$IrCl$_{6}$,0.0,eV,,,,,,,
NdTa$_{3}$O$_{9}$,3.2140000000000004,eV,,,,,,,
Tl$_{5}$(Cu$_{7}$Se$_{5}$)$_{2}$,0.0,eV,,,,,,,
Na$_{2}$MgCl$_{4}$,4.9056999999999995,eV,,,,,,,
Na$_{2}$CdCl$_{4}$,3.6351999999999998,eV,,,,,,,
Yb(FeSi)$_{2}$,0.0,eV,,,,,,,
Ca$_{2}$Cu$_{6}$P$_{5}$,0.0,eV,,,,,,,
Ba$_{2}$Cu$_{3}$P$_{4}$,0.0,eV,,,,,,,
Tl$_{2}$SnTe$_{3}$,0.4986000000000006,eV,,,,,,,
Mg$_{14}$Si$_{5}$O$_{24}$,4.677800000000001,eV,,,,,,,
NdSi$_{2}$Ru,0.0,eV,,,,,,,
Ta(NiTe)$_{2}$,0.0,eV,,,,,,,
B$_{9}$H$_{11}$N$_{4}$,3.0054,eV,,,,,,,
Ba$_{2}$Bi$_{2}$O$_{5}$,2.0078,eV,,,,,,,
ZrTe$_{2}$Br$_{5}$,1.1092,eV,,,,,,,
Zr$_{2}$TeBr$_{12}$,2.4198,eV,,,,,,,
P$_{4}$SO$_{6}$,3.6742,eV,,,,,,,
Ba$_{2}$Nb$_{15}$O$_{32}$,0.0,eV,,,,,,,
S$_{2}$O$_{5}$F$_{2}$,5.5878,eV,,,,,,,
BiS,0.0,eV,,,,,,,
NaGaBr$_{4}$,3.4829999999999997,eV,,,,,,,
Th$_{11}$(Ru$_{2}$C$_{3}$)$_{6}$,0.0,eV,,,,,,,
KGaBr$_{4}$,3.5771,eV,,,,,,,
Ta(ICl)$_{2}$,1.1785,eV,,,,,,,
Sb$_{7}$Se$_{8}$F$_{35}$,1.9007,eV,,,,,,,
Ba$_{8}$Ni$_{6}$N$_{7}$,1.9999999999953388E-4,eV,,,,,,,
Ni(H$_{2}$N)$_{2}$,1.1221999999999999,eV,,,,,,,
U$_{2}$Cu$_{4}$As$_{5}$,0.0,eV,,,,,,,
SrHgO$_{2}$,2.1807,eV,,,,,,,
TaTe$_{4}$I,0.49560000000000004,eV,,,,,,,
Cs$_{2}$CuF$_{6}$,0.0,eV,,,,,,,
Al$_{3}$Te$_{3}$I,1.9650999999999996,eV,,,,,,,
KSiH$_{3}$,2.5736,eV,,,,,,,
Na$_{4}$IrO$_{4}$,0.42910000000000004,eV,,,,,,,
UF$_{4}$,0.0,eV,,,,,,,
CsSbS$_{6}$,1.7828,eV,,,,,,,
Gd$_{2}$B$_{3}$C$_{2}$,0.019199999999999662,eV,,,,,,,
RbAg$_{5}$S$_{3}$,0.7610000000000001,eV,,,,,,,
Cr$_{4}$As$_{3}$,0.0,eV,,,,,,,
CaB$_{2}$Rh$_{3}$,0.0,eV,,,,,,,
Sr$_{5}$(B$_{5}$Rh$_{7}$)$_{2}$,0.0,eV,,,,,,,
PrNb$_{5}$O$_{14}$,1.9449,eV,,,,,,,
In$_{3}$(PO$_{4}$)$_{2}$,3.0692000000000004,eV,,,,,,,
C$_{15}$S$_{4}$,1.5051999999999999,eV,,,,,,,
BaGe$_{2}$S$_{5}$,2.1837,eV,,,,,,,
Sb$_{2}$S$_{2}$O,1.2374,eV,,,,,,,
Si$_{2}$Hg$_{6}$O$_{7}$,1.4980000000000002,eV,,,,,,,
Na$_{2}$Te$_{2}$O$_{5}$,2.9290000000000003,eV,,,,,,,
Dy(AlCl$_{4}$)$_{3}$,4.2606,eV,,,,,,,
Na$_{2}$CrCl$_{4}$,0.7107999999999999,eV,,,,,,,
Cu$_{6}$As$_{4}$S$_{9}$,0.35580000000000034,eV,,,,,,,
Ba(AuF$_{4}$)$_{2}$,2.5324,eV,,,,,,,
Pt(SCl$_{4}$)$_{2}$,1.9113,eV,,,,,,,
Pt(SCl$_{3}$)$_{2}$,1.8217,eV,,,,,,,
Gd$_{2}$CI,0.0,eV,,,,,,,
KYF$_{4}$,6.9097,eV,,,,,,,
La$_{4}$Bi$_{2}$S$_{9}$,1.0769000000000002,eV,,,,,,,
K$_{6}$Sn$_{3}$As$_{5}$,0.6389999999999998,eV,,,,,,,
Ag$_{25}$(BiO$_{6}$)$_{3}$,0.050899999999999945,eV,,,,,,,
Ce(CrB$_{3}$)$_{2}$,0.0,eV,,,,,,,
In$_{7}$Cl$_{9}$,2.1903000000000006,eV,,,,,,,
V$_{6}$C$_{5}$,0.0,eV,,,,,,,
Sc$_{3}$C$_{4}$,0.0,eV,,,,,,,
Zr$_{6}$CoCl$_{15}$,1.0914000000000001,eV,,,,,,,
Pr$_{4}$RuI$_{5}$,3.9999999999995595E-4,eV,,,,,,,
K$_{2}$(CuTe)$_{5}$,0.0,eV,,,,,,,
In$_{2}$Si$_{2}$O$_{7}$,2.7009000000000003,eV,,,,,,,
SrTi$_{11}$O$_{20}$,0.012199999999999989,eV,,,,,,,
CuSe$_{3}$Br,1.0298999999999998,eV,,,,,,,
Ca$_{4}$Ni$_{3}$C$_{5}$,0.0,eV,,,,,,,
K$_{4}$Cu$_{8}$Te$_{11}$,0.0,eV,,,,,,,
Y$_{4}$OsBr$_{4}$,0.7020999999999997,eV,,,,,,,
Nb$_{2}$Te$_{6}$I,0.6360999999999999,eV,,,,,,,
Pr$_{3}$RuI$_{3}$,0.02059999999999995,eV,,,,,,,
Y$_{3}$RuI$_{3}$,0.0,eV,,,,,,,
Y$_{3}$IrI$_{3}$,0.0,eV,,,,,,,
Ta$_{7}$Cu$_{3}$O$_{19}$,1.1795000000000004,eV,,,,,,,
NdI$_{2}$,0.0,eV,,,,,,,
Nb$_{3}$GeTe$_{6}$,0.0,eV,,,,,,,
GdCBr,0.0,eV,,,,,,,
Nd(AlBr$_{4}$)$_{3}$,3.3848000000000003,eV,,,,,,,
KPd$_{2}$F$_{5}$,0.2475,eV,,,,,,,
Al$_{7}$(TlS$_{4}$)$_{3}$,2.7930000000000006,eV,,,,,,,
KRbS,2.2214,eV,,,,,,,
CaAsPd,0.16080000000000005,eV,,,,,,,
CBr$_{3}$F,3.3196000000000003,eV,,,,,,,
K$_{2}$TiS$_{3}$,1.1217,eV,,,,,,,
Sc$_{5}$Re$_{2}$C$_{7}$,0.0,eV,,,,,,,
Na$_{4}$SnSe$_{4}$,1.4604,eV,,,,,,,
K(SnSe$_{2}$)$_{2}$,1.1675000000000002,eV,,,,,,,
Nd(SiCu)$_{2}$,0.0,eV,,,,,,,
Ca$_{2}$FeN$_{2}$,0.0,eV,,,,,,,