formula,Property Band Gap,Property Band Gap units,Property Band gap,Property Band gap units,Temperature (Property Band gap),Temperature (Property Band gap) units,Property Color,Temperature (Property Color),Temperature (Property Color) units
Sr$_{2}$FeN$_{2}$,0.0,eV,,,,,,,
SbSCl$_{9}$,1.6041,eV,,,,,,,
Na$_{4}$Ga$_{2}$S$_{5}$,2.4813,eV,,,,,,,
KSnF$_{3}$,3.5114,eV,,,,,,,
K$_{2}$UBr$_{5}$,0.11680000000000001,eV,,,,,,,
KScF$_{4}$,6.0931,eV,,,,,,,
USbO$_{5}$,0.0,eV,,,,,,,
Li$_{3}$PO$_{4}$,5.7279,eV,,,,,,,
Th$_{5}$Fe$_{19}$P$_{12}$,0,eV,,,,,,,
PrZr$_{3}$F$_{15}$,5.762700000000001,eV,,,,,,,
Na$_{3}$PS$_{4}$,2.2814000000000005,eV,,,,,,,
Zn(BIr)$_{2}$,0.04079999999999995,eV,,,,,,,
Zn$_{2}$BIr$_{2}$,0.0,eV,,,,,,,
Ba$_{9}$(AuO$_{6}$)$_{2}$,1.8826999999999998,eV,,,,,,,
Na$_{4}$Cu$_{2}$S$_{3}$,2.0857,eV,,,,,,,
SrSnO$_{3}$,1.7365,eV,,,,,,,
Al$_{13}$(TlS$_{7}$)$_{3}$,3.1191,eV,,,,,,,
Se$_{2}$NCl$_{3}$,1.4143,eV,,,,,,,
P$_{4}$N$_{3}$Cl$_{11}$,2.6338999999999997,eV,,,,,,,
Mg$_{2}$C$_{3}$,1.6533000000000002,eV,,,,,,,
LaSi$_{2}$Ru,0.0,eV,,,,,,,
Sr$_{5}$(AuO$_{4}$)$_{2}$,1.3224,eV,,,,,,,
YHSe,1.5080999999999998,eV,,,,,,,
Nb$_{4}$Te$_{12}$I,0.0,eV,,,,,,,
PtS,0.3669000000000002,eV,,,,,,,
LuB$_{2}$Os$_{3}$,0.0,eV,,,,,,,
K$_{2}$Bi$_{8}$Se$_{13}$,0.8140000000000001,eV,,,,,,,
La$_{5}$Ti$_{4}$O$_{15}$,0.0,eV,,,,,,,
Sr$_{4}$Zn$_{3}$F$_{14}$,4.7884,eV,,,,,,,
TcO$_{2}$F$_{3}$,2.5259,eV,,,,,,,
Tl$_{2}$Pt$_{5}$S$_{6}$,0.9634999999999998,eV,,,,,,,
Na$_{7}$(Cu$_{6}$S$_{5}$)$_{2}$,0.45289999999999964,eV,,,,,,,
TlReO$_{4}$,3.3756,eV,,,,,,,
TlBS$_{3}$,1.7904000000000004,eV,,,,,,,
Tb(GeRh)$_{2}$,0,eV,,,,,,,
Na$_{2}$CS$_{3}$,1.215,eV,,,,,,,
Ag$_{5}$BiO$_{4}$,1.459,eV,,,,,,,
Si$_{3}$CCl$_{8}$,4.5168,eV,,,,,,,
ThSnI$_{6}$,1.9875999999999998,eV,,,,,,,
RbCr$_{5}$Se$_{8}$,0.0035000000000002807,eV,,,,,,,
Y$_{2}$Cu$_{2}$O$_{5}$,0.33110000000000017,eV,,,,,,,
La$_{2}$Ni$_{12}$P$_{5}$,0.0,eV,,,,,,,
Ba$_{4}$P$_{3}$,0.7464,eV,,,,,,,
Gd$_{3}$(MnC$_{3}$)$_{2}$,0.0,eV,,,,,,,
Tb$_{3}$(MnC$_{3}$)$_{2}$,0.0,eV,,,,,,,
Li$_{6}$FeCl$_{8}$,0.6532999999999998,eV,,,,,,,
Li$_{2}$ZnBr$_{4}$,3.777,eV,,,,,,,
Sm$_{2}$Sn$_{2}$O$_{7}$,2.6977,eV,,,,,,,
Na$_{2}$ZnBr$_{4}$,3.9249,eV,,,,,,,
Mn$_{5}$As$_{4}$,0.0,eV,,,,,,,
Er$_{7}$Ru$_{2}$C$_{11}$,0.0,eV,,,,,,,
LiScI$_{3}$,0.0,eV,,,,,,,
TeCF$_{2}$,1.6616000000000002,eV,,,,,,,
K$_{3}$RhCl$_{6}$,1.7025,eV,,,,,,,
U$_{3}$(SiC)$_{2}$,0.0,eV,,,,,,,
Cs$_{2}$Mn$_{3}$S$_{4}$,0.47639999999999993,eV,,,,,,,
Y$_{4}$RuI$_{5}$,0.12439999999999962,eV,,,,,,,
Si$_{3}$PH$_{9}$,4.2301,eV,,,,,,,
Tl$_{2}$SnTe$_{5}$,0.0,eV,,,,,,,
OsO$_{3}$F$_{2}$,2.3101,eV,,,,,,,
TaCoTe$_{2}$,0.0,eV,,,,,,,
Ca$_{2}$Bi$_{2}$O$_{5}$,2.4956999999999994,eV,,,,,,,
Ga(MoS$_{2}$)$_{4}$,0.0,eV,,,,,,,
Na$_{4}$Cd$_{3}$Se$_{5}$,1.4673000000000003,eV,,,,,,,
LaAuO$_{3}$,1.7976999999999999,eV,,,,,,,
Cd$_{4}$OF$_{6}$,1.899,eV,,,,,,,
Na$_{7}$Au$_{5}$S$_{6}$,2.2102,eV,,,,,,,
Pb(IO$_{3}$)$_{2}$,2.6939000000000006,eV,,,,,,,
Na$_{2}$HgS$_{2}$,2.1799,eV,,,,,,,
K$_{2}$HgS$_{2}$,2.1246,eV,,,,,,,
P$_{2}$Se$_{5}$,1.3347,eV,,,,,,,
CsC$_{8}$,0.0,eV,,,,,,,
Y$_{6}$RuI$_{10}$,0.0,eV,,,,,,,
Y$_{6}$OsI$_{10}$,0.0,eV,,,,,,,
Y$_{6}$IrI$_{10}$,0.07249999999999979,eV,,,,,,,
Os(SCl$_{6}$)$_{2}$,0.0,eV,,,,,,,
Te$_{2}$OsCl$_{12}$,0.0,eV,,,,,,,
Ba$_{7}$Ir$_{6}$O$_{19}$,0.0,eV,,,,,,,
Nb$_{3}$(BiS$_{3}$)$_{2}$,0.0,eV,,,,,,,
Ga$_{3}$B$_{4}$Pt$_{9}$,0.0,eV,,,,,,,
PRhO$_{4}$,0.9792000000000001,eV,,,,,,,
In$_{3}$SnI$_{5}$,2.0256,eV,,,,,,,
RbBrO$_{3}$,4.1678,eV,,,,,,,
CsBrO$_{3}$,4.3026,eV,,,,,,,
Hg$_{2}$P$_{3}$Br,0.9380999999999999,eV,,,,,,,
Hg$_{2}$P$_{3}$Cl,1.1288000000000005,eV,,,,,,,
Cs$_{2}$SnTe$_{4}$,0.633,eV,,,,,,,
RbTe$_{6}$,0.0,eV,,,,,,,
Ca$_{5}$P$_{8}$,1.1418000000000004,eV,,,,,,,
W$_{3}$Br$_{7}$,0,eV,,,,,,,
Rb$_{2}$UCl$_{5}$,0.11590000000000034,eV,,,,,,,
GeP$_{2}$O$_{7}$,3.8284,eV,,,,,,,
Cs(FeAs)$_{2}$,0,eV,,,,,,,
PSe,2.2420999999999998,eV,,,,,,,
Cu(PtS$_{2}$)$_{2}$,0.13930000000000042,eV,,,,,,,
Hg$_{5}$(SbI$_{3}$)$_{2}$,1.4109,eV,,,,,,,
LaPd$_{3}$S$_{4}$,0.0,eV,,,,,,,
Li$_{7}$TaO$_{6}$,4.373399999999999,eV,,,,,,,
PH$_{4}$N$_{3}$,4.6014,eV,,,,,,,
ReB,0.0,eV,,,,,,,
Ba$_{2}$P$_{3}$Pd,0.0,eV,,,,,,,
Ba(P$_{2}$Pd)$_{2}$,0.0,eV,,,,,,,
CuBIr,0.0,eV,,,,,,,
BIrPd,0.0,eV,,,,,,,
BaCN$_{2}$,2.247,eV,,,,,,,
Hg$_{2}$As$_{3}$Br,0.8938000000000001,eV,,,,,,,
Cd$_{2}$As$_{3}$Br,0.7680999999999998,eV,,,,,,,
Zr$_{6}$FeCl$_{14}$,1.446,eV,,,,,,,
Na$_{2}$Te$_{4}$O$_{9}$,0.016799999999999926,eV,,,,,,,
SrC$_{20}$,0.31179999999999986,eV,,,,,,,
Ba$_{5}$(RuO$_{5}$)$_{2}$,0.22809999999999997,eV,,,,,,,
CrS$_{2}$,0.0,eV,,,,,,,
BaReH$_{9}$,3.8349,eV,,,,,,,
MnInBr$_{3}$,1.6239000000000001,eV,,,,,,,
Ti$_{6}$CCl$_{14}$,0.9476999999999998,eV,,,,,,,
Cd$_{4}$P$_{2}$Br$_{3}$,1.3981000000000003,eV,,,,,,,
Mn$_{3}$As$_{2}$,0.0,eV,,,,,,,
Ba$_{2}$Ti$_{13}$O$_{22}$,0.0,eV,,,,,,,
Hf$_{3}$Te$_{2}$,0.0,eV,,,,,,,
BaNd$_{2}$O$_{4}$,3.0972999999999997,eV,,,,,,,
Tl$_{5}$Se$_{2}$Cl,0.5641000000000003,eV,,,,,,,
Tl$_{5}$Se$_{2}$Br,0.38560000000000016,eV,,,,,,,
Ca$_{2}$Si$_{5}$N$_{8}$,3.3482000000000003,eV,,,,,,,
Ga$_{8}$BIr$_{4}$,0.0,eV,,,,,,,
Ca$_{4}$(PPd)$_{5}$,0.0,eV,,,,,,,
Ba$_{5}$(TiN$_{3}$)$_{2}$,1.4777999999999998,eV,,,,,,,
Ba(NiP$_{2}$)$_{2}$,0.0,eV,,,,,,,
DySBr,2.8776,eV,,,,,,,
DySI,2.7811,eV,,,,,,,
Dy(SiRh)$_{2}$,0.0,eV,,,,,,,
KC$_{8}$,0.0,eV,,,,,,,
Ga$_{2}$TeO$_{6}$,0.7341000000000006,eV,,,,,,,
Sn$_{4}$OF$_{6}$,3.2029,eV,,,,,,,
Br$_{2}$O$_{3}$,1.7587,eV,,,,,,,
Ta$_{2}$Te$_{5}$Pd$_{3}$,0.0,eV,,,,,,,
Nb$_{3}$TeCl$_{7}$,0.7004000000000001,eV,,,,,,,
U$_{4}$Te$_{3}$O$_{4}$,0.0,eV,,,,,,,
ScSnAu,0.12450000000000028,eV,,,,,,,
Sr$_{4}$Nb$_{2}$O$_{9}$,3.6456999999999997,eV,,,,,,,
HfAg$_{2}$S$_{3}$,1.1128000000000005,eV,,,,,,,
BiTeCl,1.5135,eV,,,,,,,
Si$_{2}$NiP$_{3}$,0.0,eV,,,,,,,
Bi$_{3}$NF$_{6}$,2.771,eV,,,,,,,
NaSn$_{2}$Cl$_{5}$,2.9783,eV,,,,,,,
Mg$_{2}$SiO$_{4}$,4.6395,eV,,,,,,,
P$_{4}$N$_{6}$O,4.3472,eV,,,,,,,
PdSO$_{4}$,1.0661,eV,,,,,,,
Tl$_{2}$PdSe$_{2}$,0.0,eV,,,,,,,
Mg$_{3}$BN$_{3}$,1.3798,eV,,,,,,,
Si$_{2}$Cl$_{2}$O$_{3}$,5.6739999999999995,eV,,,,,,,
Pr(GeRh)$_{2}$,0.0,eV,,,,,,,
Ti$_{4}$Bi$_{2}$O$_{11}$,2.0404000000000004,eV,,,,,,,
Ag$_{8}$S,0.0,eV,,,,,,,
Ta$_{4}$FeTe$_{4}$,0.0,eV,,,,,,,
AgBi$_{2}$F$_{12}$,0.39680000000000026,eV,,,,,,,
Ba(PdS$_{2}$)$_{2}$,0.8922000000000003,eV,,,,,,,
Nb$_{3}$Te$_{3}$As,0.0,eV,,,,,,,
Pr$_{2}$NCl$_{3}$,3.3932,eV,,,,,,,
Nd$_{2}$NCl$_{3}$,3.343,eV,,,,,,,
Rb$_{2}$Si$_{2}$O$_{5}$,4.0396,eV,,,,,,,
TiF$_{4}$,4.166,eV,,,,,,,
Bi$_{2}$(PSe$_{3}$)$_{3}$,1.3081,eV,,,,,,,
Ba$_{2}$S$_{3}$,1.5977999999999999,eV,,,,,,,
BaC$_{20}$,0.14360000000000017,eV,,,,,,,
Ca(AuO$_{2}$)$_{2}$,1.6618000000000004,eV,,,,,,,
K$_{3}$BiSe$_{3}$,2.0592,eV,,,,,,,
Pd(PbCl$_{3}$)$_{2}$,1.4046,eV,,,,,,,
Pd(PbBr$_{3}$)$_{2}$,1.1626000000000003,eV,,,,,,,
SbSeCl$_{9}$,1.9981,eV,,,,,,,
NaPt$_{2}$Se$_{3}$,0.9887000000000001,eV,,,,,,,
In$_{7}$Br$_{9}$,1.5437999999999998,eV,,,,,,,
Li$_{10}$BrN$_{3}$,1.3667,eV,,,,,,,
Bi$_{2}$Te$_{4}$O$_{11}$,2.7870999999999997,eV,,,,,,,
La(AuF$_{4}$)$_{3}$,2.1504,eV,,,,,,,
KLi$_{2}$As,0.6878,eV,,,,,,,
Si(CuP$_{2}$)$_{4}$,1.2078000000000007,eV,,,,,,,
Ag$_{4}$Bi$_{2}$O$_{5}$,1.6389000000000005,eV,,,,,,,
Y$_{2}$AlGe$_{3}$,0.0,eV,,,,,,,
Sn$_{5}$(BIr$_{3}$)$_{2}$,0.0,eV,,,,,,,
Sn$_{4}$B$_{3}$Ir$_{7}$,0.0,eV,,,,,,,
Na$_{3}$B$_{5}$S$_{9}$,3.5062999999999995,eV,,,,,,,
NaLuCl$_{4}$,5.1662,eV,,,,,,,
SrMgSi$_{2}$,0.0,eV,,,,,,,
U(Cr$_{3}$P$_{2}$)$_{2}$,0.0,eV,,,,,,,
P$_{2}$SO$_{3}$,3.7605,eV,,,,,,,
P$_{4}$(SO$_{2}$)$_{3}$,4.1226,eV,,,,,,,
Li$_{6}$MgBr$_{8}$,4.6843,eV,,,,,,,
Li$_{2}$MgBr$_{4}$,4.5267,eV,,,,,,,
BiTePd,0.0,eV,,,,,,,
Tl$_{2}$AgI$_{3}$,2.3707,eV,,,,,,,
Ca$_{14}$Si$_{19}$,0.019600000000000506,eV,,,,,,,
P$_{2}$S$_{3}$,2.4837000000000002,eV,,,,,,,
CaThBr$_{6}$,2.0416,eV,,,,,,,
SrThBr$_{6}$,2.0636,eV,,,,,,,
ZrSnCl$_{6}$,2.2258,eV,,,,,,,
Rb$_{3}$IO,0.6342999999999999,eV,,,,,,,
P$_{4}$SeO$_{6}$,3.1346,eV,,,,,,,
K$_{2}$GeSe$_{4}$,1.7867,eV,,,,,,,
Li$_{5}$Br$_{2}$N,2.0781,eV,,,,,,,
MnWN$_{2}$,0.0,eV,,,,,,,
TaI$_{2}$O,0.8813000000000004,eV,,,,,,,
B$_{2}$AsCl$_{2}$,3.3988,eV,,,,,,,
UAl$_{3}$Ni$_{2}$,0.0,eV,,,,,,,
ThTl$_{3}$F$_{7}$,3.2195,eV,,,,,,,
P$_{3}$BrCl$_{14}$,1.5683,eV,,,,,,,
Tl$_{2}$GeTe$_{3}$,0.4684999999999997,eV,,,,,,,
Sr(YS$_{2}$)$_{2}$,1.8113000000000001,eV,,,,,,,
Ba(YS$_{2}$)$_{2}$,1.7564000000000006,eV,,,,,,,
P$_{3}$RuO$_{9}$,0.0,eV,,,,,,,
Li$_{3}$Zr$_{4}$F$_{19}$,5.6198,eV,,,,,,,
Hg$_{4}$Sb$_{2}$I$_{3}$,0.7146000000000001,eV,,,,,,,
Cd$_{4}$Sb$_{2}$I$_{3}$,1.1297000000000001,eV,,,,,,,
La$_{5}$Ti$_{5}$O$_{17}$,0.0,eV,,,,,,,
Sr(BiO$_{2}$)$_{2}$,2.5577,eV,,,,,,,
SrCuO$_{3}$,0,eV,,,,,,,
WS$_{9}$Cl$_{4}$,1.2564,eV,,,,,,,
Cd(W$_{3}$Br$_{7}$)$_{2}$,2.0397,eV,,,,,,,
KSb$_{2}$,0.21119999999999983,eV,,,,,,,
La$_{3}$InC,0.0,eV,,,,,,,
Nb$_{3}$SBr$_{7}$,0.7427000000000001,eV,,,,,,,
Ho(NiP)$_{2}$,0.0,eV,,,,,,,
Ba$_{5}$(SiN$_{3}$)$_{2}$,1.4009,eV,,,,,,,
ThZr$_{2}$F$_{12}$,5.4973,eV,,,,,,,
ThZrF$_{8}$,5.6773,eV,,,,,,,
Al$_{3}$Fe$_{2}$Si$_{3}$,0.0,eV,,,,,,,
S$_{2}$N$_{2}$Cl,2.6105,eV,,,,,,,
Hf$_{5}$FeTe$_{3}$,0.0,eV,,,,,,,
Na(CuS)$_{4}$,0.0,eV,,,,,,,
La$_{5}$C$_{2}$Br$_{9}$,1.7523999999999997,eV,,,,,,,
Nb$_{2}$SiTe$_{4}$,0.33940000000000037,eV,,,,,,,
Nb$_{2}$GeTe$_{4}$,0.25450000000000017,eV,,,,,,,
Te$_{7}$As$_{2}$F$_{12}$,0.9303999999999999,eV,,,,,,,
Ga$_{3}$Bi$_{5}$Cl$_{12}$,1.8012000000000001,eV,,,,,,,
FeWN$_{2}$,0.0,eV,,,,,,,
LiBiO$_{3}$,0.1445000000000003,eV,,,,,,,
Hg$_{4}$As$_{2}$Br$_{3}$,0.7238,eV,,,,,,,
Al$_{2}$ZnO$_{4}$,3.8457000000000003,eV,,,,,,,
Na$_{3}$YBr$_{6}$,4.2541,eV,,,,,,,
P$_{4}$SO$_{7}$,4.0531999999999995,eV,,,,,,,
Ba$_{5}$CrN$_{5}$,0.1227999999999998,eV,,,,,,,
NaErCl$_{4}$,4.985,eV,,,,,,,
Ba$_{2}$GdCl$_{7}$,2.4275,eV,,,,,,,
Sr$_{5}$Zr$_{3}$F$_{22}$,5.3637999999999995,eV,,,,,,,
Ba$_{2}$(SnSb$_{2}$)$_{3}$,0.0,eV,,,,,,,
Sr$_{3}$(GeN)$_{2}$,0.0,eV,,,,,,,
Sr$_{2}$GeN$_{2}$,0.05339999999999989,eV,,,,,,,
HoAlNi,0.0,eV,,,,,,,
Rb$_{4}$Au$_{6}$S$_{5}$,1.698,eV,,,,,,,
Ti(CuS)$_{4}$,1.4256000000000002,eV,,,,,,,
Ba$_{3}$(GeN)$_{2}$,0.0,eV,,,,,,,
Nd$_{3}$PO$_{7}$,4.27,eV,,,,,,,
H$_{4}$SO$_{5}$,5.647600000000001,eV,,,,,,,
Hg$_{3}$(SBr)$_{2}$,1.487,eV,,,,,,,
Hg$_{3}$TeBr$_{4}$,1.9365999999999999,eV,,,,,,,
TiOs,0.0,eV,,,,,,,
KAlF$_{4}$,6.9377,eV,,,,,,,
Ce$_{8}$SbPd$_{24}$,0.0,eV,,,,,,,
Hg$_{3}$TeCl$_{4}$,2.2498,eV,,,,,,,
CsAlBr$_{4}$,4.393,eV,,,,,,,
Ti$_{3}$Zn$_{2}$O$_{8}$,2.5854,eV,,,,,,,
Rb$_{2}$Hg$_{3}$Te$_{4}$,1.0159,eV,,,,,,,
SiI$_{3}$,2.8485,eV,,,,,,,
Ba$_{3}$(SnP$_{2}$)$_{2}$,0.8061999999999996,eV,,,,,,,
Al$_{2}$(FeSi)$_{3}$,0.2298000000000009,eV,,,,,,,
Al$_{2}$Fe$_{3}$Si$_{4}$,0.0,eV,,,,,,,
Ce$_{3}$(Al$_{2}$Si$_{3}$)$_{2}$,0.0,eV,,,,,,,
Re$_{3}$Te$_{4}$Cl$_{5}$,1.2409000000000001,eV,,,,,,,
Ta$_{3}$SeI$_{7}$,0.5727000000000002,eV,,,,,,,
Ta$_{3}$TeI$_{7}$,0.5472000000000001,eV,,,,,,,
Ho$_{3}$Ge$_{3}$Ir$_{2}$,0.0,eV,,,,,,,
Ho$_{5}$(Ge$_{5}$Ir$_{2}$)$_{2}$,0.0,eV,,,,,,,
Se$_{2}$Br$_{3}$N,1.2256,eV,,,,,,,
Se$_{2}$NCl$_{5}$,2.686,eV,,,,,,,
Bi(TeBr$_{2}$)$_{2}$,1.0593,eV,,,,,,,
K$_{2}$Te$_{4}$O$_{9}$,2.9189000000000003,eV,,,,,,,
K$_{2}$Te$_{2}$O$_{5}$,3.4082000000000003,eV,,,,,,,
VSe,0.0,eV,,,,,,,
RuCl$_{2}$O,0.7522999999999997,eV,,,,,,,
OsCl$_{2}$O,0.7992999999999997,eV,,,,,,,
Zr$_{6}$CoAs$_{2}$,0.0,eV,,,,,,,
Sr$_{6}$Cu$_{3}$N$_{5}$,0.47630000000000017,eV,,,,,,,
KAuSe$_{2}$,0.8757999999999999,eV,,,,,,,
NaAuSe$_{2}$,0.9065999999999999,eV,,,,,,,
LaSi$_{3}$Ir,0.0,eV,,,,,,,
Re$_{3}$Ge$_{7}$,0.015200000000000102,eV,,,,,,,
Na$_{3}$VS$_{4}$,1.4700999999999997,eV,,,,,,,
KTe$_{2}$F$_{9}$,4.5077,eV,,,,,,,
H$_{3}$N,4.3286999999999995,eV,,,,,,,
MoCl$_{5}$,0.0,eV,,,,,,,
Li$_{4}$NCl,1.7617,eV,,,,,,,
Li$_{5}$NCl$_{2}$,1.9425000000000003,eV,,,,,,,
Zr$_{2}$CoP,0.0,eV,,,,,,,
Zr$_{2}$NiP,0.0,eV,,,,,,,
Hf$_{2}$CoP,0.0,eV,,,,,,,
TlB$_{3}$O$_{5}$,4.2226,eV,,,,,,,
NaTa$_{3}$N$_{5}$,0.0,eV,,,,,,,
Si$_{3}$P$_{2}$Pt,0.6074000000000002,eV,,,,,,,
TiAg$_{2}$O$_{3}$,1.2679,eV,,,,,,,
NaNb$_{10}$O$_{18}$,0.13569999999999993,eV,,,,,,,
Ag$_{2}$TeS$_{3}$,1.2999,eV,,,,,,,
SrBiO$_{3}$,0.31110000000000015,eV,,,,,,,
Li$_{3}$Si$_{3}$Ag$_{2}$,0.0,eV,,,,,,,
Li$_{3}$Ag$_{2}$Ge$_{3}$,0.0,eV,,,,,,,
Sr(NiP)$_{2}$,0,eV,,,,,,,
Rb$_{3}$BiSe$_{3}$,2.0716,eV,,,,,,,
Cd(AuF$_{4}$)$_{2}$,1.7605,eV,,,,,,,
Dy(SiCu)$_{2}$,0.0,eV,,,,,,,
Hg(AuF$_{4}$)$_{2}$,1.5592,eV,,,,,,,
SeF$_{4}$,4.1373999999999995,eV,,,,,,,
SiCl$_{2}$,2.0151,eV,,,,,,,
Ca$_{2}$AuN,0.0,eV,,,,,,,
Na$_{8}$Si$_{7}$O$_{18}$,4.4437,eV,,,,,,,
BaTe$_{2}$F$_{10}$,4.8809000000000005,eV,,,,,,,
TePbF$_{6}$,4.6008000000000004,eV,,,,,,,
SnCl$_{2}$,3.1011,eV,,,,,,,
YCuO$_{2}$,2.6470000000000002,eV,,,,,,,
LaNb$_{7}$O$_{12}$,0.4455,eV,,,,,,,
Cr$_{2}$P,0.0,eV,,,,,,,
Te$_{2}$O$_{3}$F$_{2}$,3.3825000000000003,eV,,,,,,,
La(SiP$_{3}$)$_{2}$,0.8978000000000002,eV,,,,,,,
Co(SiP)$_{3}$,1.2515999999999998,eV,,,,,,,
Te$_{4}$MoBr,0.855,eV,,,,,,,
Nb$_{2}$Se$_{4}$O$_{13}$,2.427,eV,,,,,,,
Cs$_{2}$Au$_{2}$Se$_{3}$,1.4632999999999998,eV,,,,,,,
LiPO$_{3}$,5.5611999999999995,eV,,,,,,,
AuCN,1.8408,eV,,,,,,,
La$_{3}$Br$_{6}$N,3.0574999999999997,eV,,,,,,,
Na$_{5}$AuSe$_{12}$,1.0246000000000002,eV,,,,,,,
BaCuN,0.006400000000000183,eV,,,,,,,
V$_{3}$As,0.0,eV,,,,,,,
LaAlO$_{3}$,4.0189,eV,,,,,,,
KNO$_{2}$,2.5269,eV,,,,,,,
TbCd$_{2}$F$_{8}$,4.7035,eV,,,,,,,
P$_{4}$(S$_{2}$O)$_{3}$,3.2175000000000002,eV,,,,,,,
YBO$_{3}$,5.1669,eV,,,,,,,
BaMnSb$_{2}$,0.0,eV,,,,,,,
SrMnBi$_{2}$,0.0,eV,,,,,,,
Ca(MgBi)$_{2}$,0.3886000000000003,eV,,,,,,,
Ba(MgBi)$_{2}$,0.3967999999999998,eV,,,,,,,
Gd$_{3}$Ga$_{5}$O$_{12}$,3.2615000000000003,eV,,,,,,,
Li$_{2}$Ga,0.0,eV,,,,,,,
V$_{4}$Cu$_{3}$S$_{8}$,0.002400000000000624,eV,,,,,,,
Tl$_{4}$PbI$_{6}$,2.3270000000000004,eV,,,,,,,
Cd$_{2}$Ge$_{7}$O$_{16}$,2.1004,eV,,,,,,,
Te$_{4}$P$_{2}$O$_{13}$,3.0667,eV,,,,,,,
Cs$_{2}$PtCl$_{4}$,2.0518,eV,,,,,,,
Ge$_{3}$PbO$_{7}$,2.9285999999999994,eV,,,,,,,
Ge$_{3}$Bi$_{2}$O$_{9}$,2.9644,eV,,,,,,,
Ba$_{2}$(Ni$_{3}$B$_{2}$)$_{3}$,0.0,eV,,,,,,,
Ca$_{2}$AlF$_{7}$,7.1413,eV,,,,,,,
Ba$_{2}$Si$_{3}$O$_{8}$,4.5120000000000005,eV,,,,,,,
Ba$_{3}$Si$_{5}$O$_{13}$,4.514799999999999,eV,,,,,,,
S$_{3}$N$_{2}$O$_{5}$,2.7323,eV,,,,,,,
Al$_{4}$Cu$_{2}$O$_{7}$,0,eV,,,,,,,
Ca$_{3}$Ga$_{4}$O$_{9}$,2.6392999999999995,eV,,,,,,,
TlV$_{5}$S$_{8}$,0.0,eV,,,,,,,
CsSrN$_{9}$,3.8209,eV,,,,,,,
Ca$_{2}$Os$_{2}$O$_{7}$,0.0,eV,,,,,,,
Mo$_{3}$S$_{3}$Br,0.08279999999999976,eV,,,,,,,
ZrPb$_{3}$F$_{10}$,4.674,eV,,,,,,,
InTeI,1.5625,eV,,,,,,,
InTeBr,1.5714000000000001,eV,,,,,,,
Tl$_{2}$SnSe$_{3}$,0.9887000000000001,eV,,,,,,,
TlAgSe,0.6004,eV,,,,,,,
LuB$_{2}$Ru,0.0,eV,,,,,,,
Ho(SiNi)$_{2}$,0.0,eV,,,,,,,
LaSi$_{2}$Ru$_{3}$,0.0,eV,,,,,,,
Ca$_{3}$SnO,0.0,eV,,,,,,,
Ba$_{3}$PbO,0.0,eV,,,,,,,
Ba$_{3}$SnO,0.0,eV,,,,,,,
Cd$_{2}$P$_{3}$I,1.0992000000000002,eV,,,,,,,
Cd$_{2}$P$_{3}$Br,1.1423,eV,,,,,,,
Cd$_{2}$P$_{3}$Cl,1.1977000000000002,eV,,,,,,,
GeAsSe,1.4624000000000001,eV,,,,,,,
Li$_{6}$VCl$_{8}$,1.5371000000000001,eV,,,,,,,
Te$_{6}$Br$_{2}$O$_{11}$,2.5231000000000003,eV,,,,,,,
Sn$_{2}$ClF$_{3}$,3.5512,eV,,,,,,,
PrIO,3.6584,eV,,,,,,,
LaTlO$_{3}$,0.3504000000000005,eV,,,,,,,
Bi$_{2}$PdO$_{4}$,0.12929999999999975,eV,,,,,,,
Pr$_{2}$MgNi$_{2}$,0.0,eV,,,,,,,
Ti(SeO$_{3}$)$_{2}$,2.4445,eV,,,,,,,
UBr$_{5}$,0.2927,eV,,,,,,,
SICl$_{7}$,1.6598000000000002,eV,,,,,,,
Nd$_{2}$(SO$_{4}$)$_{3}$,5.437200000000001,eV,,,,,,,
CsS,1.7141000000000002,eV,,,,,,,
Sn$_{5}$Sb$_{2}$S$_{9}$,0.5992999999999995,eV,,,,,,,
NaSbF$_{4}$,4.3258,eV,,,,,,,
LiAg$_{2}$Sn,0.0,eV,,,,,,,
Ca$_{2}$Ge$_{7}$O$_{16}$,2.8625000000000003,eV,,,,,,,
P$_{2}$PdO$_{6}$,1.6915999999999998,eV,,,,,,,
Cd$_{2}$P$_{6}$O$_{17}$,4.2535,eV,,,,,,,
CuClF$_{10}$,0.024700000000000166,eV,,,,,,,
FePSe$_{3}$,0.2601,eV,,,,,,,
Th$_{2}$P$_{11}$,0.32339999999999947,eV,,,,,,,
P$_{2}$PtO$_{7}$,1.5012999999999999,eV,,,,,,,
Ca$_{2}$Sb$_{2}$S$_{5}$,1.8032000000000004,eV,,,,,,,
TlSbF$_{4}$,3.8659000000000003,eV,,,,,,,
Cs$_{3}$CoBr$_{5}$,0.6983,eV,,,,,,,
TlGeI$_{3}$,1.9199999999999995,eV,,,,,,,
BaPt$_{2}$S$_{3}$,0.9731999999999998,eV,,,,,,,
I$_{2}$(OF$_{2}$)$_{3}$,2.3164,eV,,,,,,,
B$_{10}$H$_{13}$,3.3318000000000003,eV,,,,,,,
Sr$_{3}$Sb$_{4}$S$_{9}$,1.0408000000000008,eV,,,,,,,
CsSbF$_{4}$,4.4582,eV,,,,,,,
Cd$_{3}$(ClO)$_{2}$,1.1713,eV,,,,,,,
Ba$_{4}$Ti$_{13}$O$_{30}$,2.5853,eV,,,,,,,
TeSeO$_{4}$,3.0675000000000003,eV,,,,,,,
Mn$_{3}$ZnC,0.0,eV,,,,,,,
Ga$_{2}$CuCl$_{8}$,0.6966,eV,,,,,,,
Ba$_{4}$Ga$_{2}$S$_{7}$,2.6305,eV,,,,,,,
Ba$_{3}$(GaS$_{3}$)$_{2}$,2.6755000000000004,eV,,,,,,,
Tl$_{4}$Sn$_{5}$S$_{12}$,0.0,eV,,,,,,,
Y$_{2}$InCl$_{7}$,4.0073,eV,,,,,,,
Re$_{2}$PbO$_{8}$,3.7674000000000003,eV,,,,,,,
B$_{5}$(H$_{2}$N)$_{2}$,2.8741000000000003,eV,,,,,,,
Na$_{5}$Co$_{2}$S$_{5}$,0.0,eV,,,,,,,
Si$_{2}$H$_{6}$S,4.4871,eV,,,,,,,
Li$_{2}$TiO$_{3}$,3.0339,eV,,,,,,,
Si$_{2}$H$_{6}$Se,3.7464000000000004,eV,,,,,,,
S$_{3}$N$_{2}$Cl,1.2724,eV,,,,,,,
InI$_{2}$,1.7863000000000002,eV,,,,,,,
Ta$_{4}$P$_{4}$S$_{29}$,1.0363000000000002,eV,,,,,,,
RbVBr$_{3}$,0.6053000000000002,eV,,,,,,,
Sc$_{7}$(CCl$_{5}$)$_{2}$,0,eV,,,,,,,
Y$_{2}$Si$_{4}$Mo$_{3}$,0.0,eV,,,,,,,
Te$_{3}$SeO$_{8}$,2.6440999999999995,eV,,,,,,,
La$_{3}$(ReO$_{5}$)$_{2}$,0.0,eV,,,,,,,
SmBrO,4.5207,eV,,,,,,,
Pr$_{2}$(ReB$_{2}$)$_{3}$,0.0,eV,,,,,,,
K$_{2}$H$_{5}$F$_{7}$,7.1692,eV,,,,,,,
KH$_{3}$F$_{4}$,7.363700000000001,eV,,,,,,,
Pt(PbO$_{2}$)$_{2}$,0.5213999999999999,eV,,,,,,,
Rb$_{2}$PuCl$_{5}$,0.08400000000000007,eV,,,,,,,
K$_{2}$PuCl$_{5}$,0.08990000000000009,eV,,,,,,,
Rb$_{2}$PuCl$_{6}$,0.3862,eV,,,,,,,
Tl$_{3}$BS$_{3}$,1.4222000000000001,eV,,,,,,,
Lu(NbCl$_{3}$)$_{6}$,0.13280000000000003,eV,,,,,,,
K$_{4}$Au$_{6}$S$_{5}$,1.5841999999999998,eV,,,,,,,
Ca$_{3}$PCl$_{3}$,1.8419000000000003,eV,,,,,,,
NaCu$_{3}$F$_{7}$,0.0,eV,,,,,,,
LiGaCl$_{3}$,3.6888,eV,,,,,,,
LiGaI$_{3}$,2.2473,eV,,,,,,,
HSN,3.3071999999999995,eV,,,,,,,
Li$_{2}$GeAu,0,eV,,,,,,,
Ba$_{2}$PdO$_{3}$,0.01750000000000007,eV,,,,,,,
Ba$_{3}$(TaS$_{4}$)$_{2}$,0.7451999999999996,eV,,,,,,,
NaTeF$_{5}$,5.2511,eV,,,,,,,
NaTi$_{2}$O$_{4}$,0.0,eV,,,,,,,
Zr$_{6}$CCl$_{14}$,1.2812,eV,,,,,,,
Zr$_{6}$BCl$_{14}$,0.0,eV,,,,,,,
Na$_{2}$PdCl$_{4}$,1.1864000000000001,eV,,,,,,,
K$_{2}$U$_{2}$O$_{7}$,1.7071,eV,,,,,,,
GaCuCl$_{4}$,1.8149000000000002,eV,,,,,,,
Rb$_{3}$GaP$_{2}$,0.8513999999999999,eV,,,,,,,
Li$_{5}$SbO$_{5}$,2.914,eV,,,,,,,
Li$_{5}$BiO$_{5}$,1.3597000000000001,eV,,,,,,,
Th$_{2}$Ta$_{2}$O$_{9}$,3.4214999999999995,eV,,,,,,,
Sb$_{7}$F$_{29}$,3.5953,eV,,,,,,,
Na$_{3}$BP$_{2}$,1.8441999999999998,eV,,,,,,,
Rb$_{2}$GaSb$_{2}$,1.0286999999999997,eV,,,,,,,
Cs$_{2}$GaSb$_{2}$,1.0828000000000002,eV,,,,,,,
KAlSb$_{4}$,0.24520000000000053,eV,,,,,,,
KGaSb$_{4}$,0.2906000000000004,eV,,,,,,,
Na$_{3}$InS$_{3}$,2.2716000000000003,eV,,,,,,,
Na$_{5}$InS$_{4}$,2.4635999999999996,eV,,,,,,,
K$_{5}$GaSe$_{4}$,2.1092999999999997,eV,,,,,,,
K$_{3}$BiTe$_{3}$,1.4987,eV,,,,,,,
Tm(FeSi)$_{2}$,0.0,eV,,,,,,,
K$_{2}$Te$_{2}$As,0.9603999999999999,eV,,,,,,,
Na$_{2}$Te$_{2}$As,1.0608,eV,,,,,,,
KGaSb$_{2}$,0.9419999999999997,eV,,,,,,,
Rb$_{3}$TlCl$_{6}$,2.274,eV,,,,,,,
K$_{6}$Sn$_{2}$Se$_{7}$,1.8232,eV,,,,,,,
K$_{5}$SnBi$_{3}$,0.0032999999999998586,eV,,,,,,,
K$_{2}$Ge$_{2}$Se$_{5}$,1.8029,eV,,,,,,,
SbCl$_{3}$F$_{2}$,1.8283,eV,,,,,,,
Na$_{2}$TiCl$_{4}$,0.0,eV,,,,,,,
UNb$_{2}$O$_{7}$,0.0,eV,,,,,,,
Gd$_{2}$CCl$_{2}$,0.4887999999999999,eV,,,,,,,
NaAlI$_{4}$,3.4482,eV,,,,,,,
Cu$_{2}$PbO$_{2}$,0.6290000000000004,eV,,,,,,,
SiTePt,0.3365999999999998,eV,,,,,,,
Cs$_{2}$HfI$_{6}$,2.2062,eV,,,,,,,
UO$_{3}$,1.8558000000000003,eV,,,,,,,
LuPO$_{4}$,5.9556000000000004,eV,,,,,,,
CsFeCl$_{3}$,0.0,eV,,,,,,,
Er$_{5}$C$_{2}$Br$_{9}$,0.8853000000000002,eV,,,,,,,
KGaI$_{4}$,2.605,eV,,,,,,,
GaCuI$_{4}$,1.6966999999999999,eV,,,,,,,
La$_{2}$CCl,0.0,eV,,,,,,,
RbSnI$_{3}$,1.9865,eV,,,,,,,
AlTeI$_{7}$,1.8759,eV,,,,,,,
AlSeBr$_{7}$,2.1683,eV,,,,,,,
CIF$_{7}$,4.6791,eV,,,,,,,
Li$_{2}$B$_{2}$S$_{5}$,2.4427000000000003,eV,,,,,,,
Na$_{2}$B$_{2}$S$_{5}$,2.5898,eV,,,,,,,
Ta$_{3}$Br$_{7}$,1.2286000000000001,eV,,,,,,,
Rb$_{3}$Nb$_{2}$Br$_{9}$,0.0,eV,,,,,,,
Cd$_{3}$PCl$_{3}$,1.8279,eV,,,,,,,
Pr$_{5}$C$_{2}$Br$_{9}$,1.5333999999999999,eV,,,,,,,
Na$_{3}$ScBr$_{6}$,3.3731,eV,,,,,,,
Hf(Te$_{2}$Cl$_{3}$)$_{2}$,1.2626,eV,,,,,,,
Hf(Se$_{2}$Cl$_{3}$)$_{2}$,1.3131,eV,,,,,,,
HfCl$_{4}$,4.1644000000000005,eV,,,,,,,
TlFeBr$_{4}$,1.0383,eV,,,,,,,
Sr$_{4}$As$_{3}$,0.5853000000000002,eV,,,,,,,
Y$_{5}$C$_{2}$I$_{9}$,0.6358999999999999,eV,,,,,,,
Ta(TeBr$_{3}$)$_{2}$,1.1942,eV,,,,,,,
Ta(TeCl$_{3}$)$_{2}$,1.1619,eV,,,,,,,