formula,Property Band Gap,Property Band Gap units,Property Band gap,Property Band gap units,Temperature (Property Band gap),Temperature (Property Band gap) units,Property Color,Temperature (Property Color),Temperature (Property Color) units
Ca$_{3}$Al$_{4}$ZnO$_{10}$,3.5446999999999997,eV,,,,,,,
Cs$_{2}$KNiF$_{6}$,0.0048000000000000265,eV,,,,,,,
Cr$_{3}$O$_{8}$,0.5056,eV,,,,,,,
SbCNCl$_{4}$O,2.1439,eV,,,,,,,
SrLiBS$_{3}$,2.3921999999999994,eV,,,,,,,
Li$_{9}$S$_{3}$N,2.4272,eV,,,,,,,
Ba$_{2}$Ti$_{2}$Si$_{2}$O$_{9}$F$_{2}$,3.3557000000000006,eV,,,,,,,
LiLa$_{2}$S$_{2}$O$_{8}$F$_{3}$,4.5891,eV,,,,,,,
SrCu(TeO$_{3}$)$_{2}$,0.0,eV,,,,,,,
BaZn$_{2}$(BO$_{3}$)$_{2}$,3.4810999999999996,eV,,,,,,,
Na(CO)$_{2}$,2.5015,eV,,,,,,,
MnTl$_{2}$As$_{2}$S$_{5}$,0.6165999999999996,eV,,,,,,,
CuS$_{4}$BrN$_{4}$,0.8969,eV,,,,,,,
KPO$_{3}$,4.9935,eV,,,,,,,
K$_{3}$Sb$_{5}$O$_{14}$,1.1988000000000003,eV,,,,,,,
H$_{12}$Pd(N$_{5}$O$_{4}$)$_{2}$,1.9444,eV,,,,,,,
InTeClO$_{3}$,3.0723,eV,,,,,,,
BiO$_{2}$,1.1596000000000002,eV,,,,,,,
Ba$_{3}$Sc(BO$_{2}$)$_{9}$,5.2789,eV,,,,,,,
CaSeO$_{3}$,4.2502,eV,,,,,,,
Dy$_{3}$SiCuS$_{7}$,1.7895000000000003,eV,,,,,,,
YMn$_{2}$,0.0,eV,,,,,,,
UH$_{12}$C$_{4}$N$_{4}$O$_{11}$,2.3849,eV,,,,,,,
Sm(IO$_{3}$)$_{3}$,3.6031,eV,,,,,,,
Cd$_{2}$H$_{2}$SO$_{6}$,2.7607999999999997,eV,,,,,,,
Ba$_{2}$Cu(PO$_{3}$)$_{6}$,1.1059999999999999,eV,,,,,,,
S,2.4585,eV,,,,,,,
K$_{2}$Cr$_{2}$O$_{7}$,2.7075,eV,,,,,,,
CaMgAsO$_{4}$F,3.7523,eV,,,,,,,
Ce$_{3}$Si$_{2}$BO$_{10}$,0.25489999999999924,eV,,,,,,,
SrBPO$_{5}$,5.3835999999999995,eV,,,,,,,
Rb$_{2}$Sb$_{4}$O$_{11}$,1.8205,eV,,,,,,,
SiO$_{2}$,5.671,eV,,,,,,,
SbSe(IF$_{2}$)$_{3}$,1.4032,eV,,,,,,,
Na$_{2}$Ca$_{3}$Ta$_{2}$O$_{9}$,3.7127999999999997,eV,,,,,,,
Sr$_{2}$HoSbO$_{6}$,3.6365,eV,,,,,,,
Sm$_{3}$CuSnS$_{7}$,1.6872999999999996,eV,,,,,,,
NaLi$_{2}$PO$_{4}$,5.1689,eV,,,,,,,
KMnF$_{3}$,2.7828,eV,,,,,,,
Rb$_{2}$NaMnF$_{6}$,1.5342,eV,,,,,,,
SrLi$_{2}$Ta$_{2}$O$_{7}$,2.2704000000000004,eV,,,,,,,
In$_{2}$Si(CuS$_{3}$)$_{2}$,0.4558,eV,,,,,,,
AlPO$_{4}$,5.4806,eV,,,,,,,
LiCdCoF$_{6}$,0.0,eV,,,,,,,
LiMnF$_{4}$,1.855,eV,,,,,,,
K$_{6}$Ti$_{2}$S$_{6}$O,2.4834,eV,,,,,,,
KCu(BiS$_{2}$)$_{2}$,0.6732,eV,,,,,,,
In$_{4}$(P$_{2}$O$_{7}$)$_{3}$,3.4044000000000003,eV,,,,,,,
Tl(MoO$_{3}$)$_{3}$,0.0,eV,,,,,,,
RbS,1.6972000000000003,eV,,,,,,,
Sb$_{2}$SeI$_{2}$F$_{11}$,1.4002,eV,,,,,,,
Rb$_{2}$NaFeF$_{6}$,4.0722000000000005,eV,,,,,,,
Ca$_{3}$Mg(SiO$_{4}$)$_{2}$,3.8228,eV,,,,,,,
Li$_{5}$GaO$_{2}$,0.5954,eV,,,,,,,
BaLi$_{2}$Ti$_{6}$O$_{14}$,2.8907999999999996,eV,,,,,,,
KNaGeO$_{3}$,3.0313999999999997,eV,,,,,,,
K$_{2}$Cr$_{4}$O$_{13}$,1.8731,eV,,,,,,,
Na$_{2}$Ca$_{3}$(Si$_{3}$O$_{8}$)$_{2}$,4.3043,eV,,,,,,,
AlPO$_{4}$,5.6341,eV,,,,,,,
Zn$_{2}$SiO$_{4}$,2.3636,eV,,,,,,,
Nb$_{2}$Tl$_{5}$S$_{4}$Br$_{9}$,1.6588000000000003,eV,,,,,,,
KLiSi$_{2}$O$_{5}$,4.7068,eV,,,,,,,
NaMn$_{3}$F$_{10}$,1.4189,eV,,,,,,,
LiB$_{6}$O$_{9}$F,6.4556,eV,,,,,,,
SnH$_{58}$C$_{16}$S$_{4}$(N$_{11}$O$_{9}$)$_{2}$,4.6716,eV,,,,,,,
U$_{3}$Tl$_{2}$(IO$_{5}$)$_{4}$,1.6891000000000003,eV,,,,,,,
TiS$_{2}$,0.013400000000000079,eV,,,,,,,
Rb$_{2}$MnF$_{6}$,3.3045,eV,,,,,,,
Ba$_{6}$Nb$_{2}$Ir(ClO$_{6}$)$_{2}$,0,eV,,,,,,,
Sr$_{4}$NbAlO$_{8}$,2.9538,eV,,,,,,,
SiO$_{2}$,5.6222,eV,,,,,,,
KMnF$_{4}$,2.0244,eV,,,,,,,
BeF$_{2}$,8.0867,eV,,,,,,,
K$_{4}$Ba(VS$_{4}$)$_{2}$,1.5514000000000001,eV,,,,,,,
GdSClO$_{4}$,1.9163,eV,,,,,,,
BaTiO$_{3}$,2.3004000000000002,eV,,,,,,,
LaH$_{4}$S$_{2}$NO$_{8}$,4.4517,eV,,,,,,,
KNd$_{2}$NbO$_{6}$,3.6165000000000003,eV,,,,,,,
KNaSi$_{2}$O$_{5}$,4.4523,eV,,,,,,,
MnBiS$_{2}$Cl,0.8539999999999992,eV,,,,,,,
Sm$_{2}$Tc$_{2}$O$_{7}$,0.09609999999999985,eV,,,,,,,
Rb$_{2}$MnF$_{6}$,3.2312999999999996,eV,,,,,,,
TlF,3.0101000000000004,eV,,,,,,,
Ti$_{4}$S$_{8}$Cl$_{6}$O,1.6012,eV,,,,,,,
AlBPbO$_{4}$,2.7567000000000004,eV,,,,,,,
Te$_{2}$AsCNF$_{6}$,1.5716,eV,,,,,,,
Cs$_{4}$Ni$_{3}$F$_{10}$,4.9549,eV,,,,,,,
Pr$_{4}$S$_{3}$NCl$_{3}$,3.0308,eV,,,,,,,
CuH$_{10}$(CO$_{4}$)$_{2}$,0.0,eV,,,,,,,
BF$_{3}$,8.1417,eV,,,,,,,
Ag$_{2}$PO$_{3}$F,1.0774,eV,,,,,,,
GdAg(PO$_{3}$)$_{4}$,2.3232,eV,,,,,,,
Ba$_{4}$Nb$_{2}$(OF$_{4}$)$_{3}$,3.3527,eV,,,,,,,
Ag$_{3}$PO$_{4}$,0.0,eV,,,,,,,
KFeF$_{4}$,3.109,eV,,,,,,,
BaTi$_{2}$O$_{5}$,2.8003,eV,,,,,,,
NaYCO$_{3}$F$_{2}$,5.2379,eV,,,,,,,
NaMo$_{2}$(PO$_{4}$)$_{3}$,0.0,eV,,,,,,,
RbP(OF)$_{2}$,5.1966,eV,,,,,,,
Pb(SeO$_{3}$)$_{2}$,1.2782999999999998,eV,,,,,,,
CaHf$_{4}$O$_{9}$,4.4454,eV,,,,,,,
SbC(Cl$_{2}$O)$_{2}$,2.1067,eV,,,,,,,
Na$_{5}$Mn$_{3}$F$_{14}$,1.3817,eV,,,,,,,
Ba(AuF$_{6}$)$_{2}$,1.5741999999999998,eV,,,,,,,
NaCaAlF$_{6}$,6.905600000000001,eV,,,,,,,
Rb$_{3}$PO$_{4}$,3.6647999999999996,eV,,,,,,,
Ca(PtO$_{2}$)$_{2}$,0.0,eV,,,,,,,
TlSb$_{3}$(AsS$_{4}$)$_{2}$,1.56,eV,,,,,,,
KCBr(NO$_{2}$)$_{2}$,2.0874,eV,,,,,,,
NaSiBO$_{4}$,5.5274,eV,,,,,,,
MoS$_{2}$N$_{2}$Cl$_{5}$,0.5399,eV,,,,,,,
BaGe$_{2}$O$_{5}$,2.9338999999999995,eV,,,,,,,
RbLu$_{3}$F$_{10}$,6.7502,eV,,,,,,,
K$_{2}$Mo(I$_{2}$O$_{7}$)$_{2}$,3.0251,eV,,,,,,,
AgHg$_{2}$AsO$_{4}$,0.7385999999999999,eV,,,,,,,
Ag$_{3}$SI,0.6203000000000003,eV,,,,,,,
Na$_{2}$ZrSi$_{2}$O$_{7}$,4.5653,eV,,,,,,,
NaPO$_{3}$,5.146199999999999,eV,,,,,,,
K$_{2}$Cu$_{3}$(AsO$_{3}$)$_{4}$,0.1322000000000001,eV,,,,,,,
Ba$_{2}$HoB$_{2}$ClO$_{6}$,4.0836,eV,,,,,,,
Na$_{2}$Cd(SO$_{4}$)$_{2}$,3.8287000000000004,eV,,,,,,,
CuAs$_{4}$S$_{3}$Cl,1.6216999999999997,eV,,,,,,,
SiO$_{2}$,5.317699999999999,eV,,,,,,,
SiO$_{2}$,5.8698,eV,,,,,,,
ErPH$_{5}$CO$_{7}$,3.7117,eV,,,,,,,
K$_{9}$U$_{6}$BiO$_{24}$,1.7042000000000002,eV,,,,,,,
Eu$_{5}$Si$_{3}$O$_{12}$F,0,eV,,,,,,,
RbInAs$_{2}$O$_{7}$,2.5506,eV,,,,,,,
Ca$_{3}$Mg(SiO$_{4}$)$_{2}$,4.8796,eV,,,,,,,
KNaNdNbO$_{5}$,3.4371,eV,,,,,,,
CsAg(NO$_{3}$)$_{2}$,2.6683,eV,,,,,,,
SrLi(BS$_{2}$)$_{3}$,2.91,eV,,,,,,,
Dy$_{2}$(TeO$_{3}$)$_{3}$,3.2269,eV,,,,,,,
H$_{2}$O,5.556800000000001,eV,,,,,,,
K$_{2}$RbMn$_{2}$F$_{7}$,2.9214,eV,,,,,,,
Li$_{2}$MnF$_{6}$,2.7159999999999997,eV,,,,,,,
La$_{10}$S$_{19}$,0.7225999999999999,eV,,,,,,,
Ba$_{3}$Ho$_{2}$Cu$_{2}$PtO$_{10}$,0.3026,eV,,,,,,,
Na$_{5}$La(WO$_{4}$)$_{4}$,4.7881,eV,,,,,,,
CaTaF$_{7}$,5.065200000000001,eV,,,,,,,
NaZnPO$_{4}$,4.2009,eV,,,,,,,
KEr$_{2}$F$_{7}$,6.904599999999999,eV,,,,,,,
Rb$_{4}$U$_{5}$O$_{17}$,1.5170000000000001,eV,,,,,,,
K$_{3}$Al$_{4}$P$_{2}$O$_{8}$F$_{9}$,5.456,eV,,,,,,,
TaTl$_{2}$AgS$_{4}$,2.0357,eV,,,,,,,
Ba$_{2}$InClO$_{3}$,1.9144999999999999,eV,,,,,,,
As(IF$_{3}$)$_{2}$,0.5218,eV,,,,,,,
PrTa$_{3}$O$_{9}$,3.1746000000000003,eV,,,,,,,
AsS$_{4}$N$_{4}$F$_{5}$,1.8972000000000002,eV,,,,,,,
Li$_{3}$Ti$_{4}$O$_{8}$,0.0,eV,,,,,,,
DySeClO$_{3}$,4.366899999999999,eV,,,,,,,
Eu$_{2}$I$_{2}$O,0.0,eV,,,,,,,
Pr$_{3}$Si$_{2}$S$_{8}$I,2.5743,eV,,,,,,,
Hg$_{6}$Cl$_{3}$O$_{2}$,1.7735,eV,,,,,,,
YH$_{24}$C$_{9}$N$_{6}$(ClO)$_{3}$,4.636900000000001,eV,,,,,,,
NaLiSiB$_{3}$HO$_{8}$,5.2406,eV,,,,,,,
Ca$_{4}$Si$_{6}$Pb$_{6}$Cl$_{2}$O$_{21}$,3.3861,eV,,,,,,,
Ce$_{2}$SiS$_{5}$,0.0,eV,,,,,,,
AlS$_{5}$N$_{5}$Cl$_{4}$,2.2857,eV,,,,,,,
Na$_{3}$ThP$_{3}$O$_{11}$,4.9705,eV,,,,,,,
Ca$_{3}$SiO$_{5}$,3.2782999999999998,eV,,,,,,,
K$_{2}$Er(NO$_{3}$)$_{5}$,3.4458,eV,,,,,,,
Ti$_{3}$(BiO$_{3}$)$_{4}$,2.2583,eV,,,,,,,
Tl$_{2}$Te$_{3}$O$_{7}$,2.8048,eV,,,,,,,
SrCrF$_{4}$,3.6107,eV,,,,,,,
GaBiO$_{3}$,1.8781999999999996,eV,,,,,,,
CdAs$_{2}$S$_{2}$(OF$_{3}$)$_{4}$,3.4895,eV,,,,,,,
UAg$_{2}$(SeO$_{4}$)$_{2}$,1.5090999999999999,eV,,,,,,,
K$_{2}$Na(B$_{3}$O$_{5}$)$_{3}$,5.3008999999999995,eV,,,,,,,
Li$_{3}$TaO$_{4}$,4.5218,eV,,,,,,,
CS$_{3}$N$_{5}$Cl,2.2804,eV,,,,,,,
Na$_{2}$Ce$_{2}$TiSi(CO$_{6}$)$_{2}$,0.03189999999999937,eV,,,,,,,
Zn$_{3}$TeAs$_{2}$Pb$_{3}$O$_{14}$,2.9581999999999997,eV,,,,,,,
SiO$_{2}$,5.440799999999999,eV,,,,,,,
Bi$_{5}$BrO$_{7}$,2.808,eV,,,,,,,
Ce$_{3}$CuGeS$_{7}$,0.0,eV,,,,,,,
Rb$_{2}$Ag$_{4}$Pd$_{3}$(NO$_{2}$)$_{12}$,1.7792,eV,,,,,,,
PW$_{5}$O$_{17}$,0,eV,,,,,,,
K$_{4}$SnSb$_{2}$F$_{14}$,4.0813,eV,,,,,,,
BaLi$_{2}$SiO$_{4}$,4.3896,eV,,,,,,,
Li$_{2}$O$_{2}$,1.6379,eV,,,,,,,
TaBi$_{4}$ClO$_{8}$,1.0065999999999997,eV,,,,,,,
KNaPrNbO$_{5}$,3.4049,eV,,,,,,,
TbRb$_{2}$Ga(SiO$_{3}$)$_{4}$,4.0952,eV,,,,,,,
K$_{3}$U$_{3}$Si$_{2}$O$_{13}$,0.5497000000000005,eV,,,,,,,
SrBi$_{2}$B$_{2}$O$_{7}$,2.804,eV,,,,,,,
K$_{2}$YNb$_{5}$O$_{15}$,1.6085,eV,,,,,,,
SiO$_{2}$,5.587,eV,,,,,,,
V$_{2}$Se$_{2}$O$_{9}$,2.2229,eV,,,,,,,
IClOF,2.0229,eV,,,,,,,
K$_{5}$Au(IO)$_{2}$,1.8748000000000002,eV,,,,,,,
Nd$_{4}$Ga$_{2}$S$_{5}$O$_{4}$,2.9954,eV,,,,,,,
Na$_{2}$Pd(NO$_{2}$)$_{4}$,1.9466,eV,,,,,,,
Ho$_{2}$O$_{3}$,4.0554,eV,,,,,,,
Tl$_{2}$CuAsO$_{4}$,1.5066000000000002,eV,,,,,,,
Nd$_{5}$As$_{2}$ClO$_{10}$,3.2958000000000003,eV,,,,,,,
CrXeF$_{6}$,1.7997999999999998,eV,,,,,,,
Nd(IO$_{3}$)$_{3}$,3.4111,eV,,,,,,,
K$_{4}$Ba(SiO$_{3}$)$_{3}$,4.2288,eV,,,,,,,
Ba$_{5}$P$_{3}$ClO$_{12}$,5.0449,eV,,,,,,,
Zn$_{2}$TeBr$_{2}$O$_{3}$,3.2928,eV,,,,,,,
SiO$_{2}$,5.5127,eV,,,,,,,
H$_{10}$C$_{3}$S$_{3}$N,1.7681000000000002,eV,,,,,,,
Ca(B$_{3}$O$_{5}$)$_{2}$,5.8213,eV,,,,,,,
AlAs$_{3}$S$_{5}$Cl$_{4}$,2.2534,eV,,,,,,,
CaMgGeO$_{4}$,3.6233999999999997,eV,,,,,,,
Cu$_{4}$Te$_{5}$(ClO$_{3}$)$_{4}$,0.04180000000000028,eV,,,,,,,
SiO$_{2}$,1.179,eV,,,,,,,
AgBi$_{2}$S$_{3}$Cl,0.7821000000000007,eV,,,,,,,
Ca$_{3}$TiBe$_{2}$Si$_{2}$(As$_{3}$O$_{10}$)$_{2}$,2.6233000000000004,eV,,,,,,,
La$_{5}$Ti$_{5}$O$_{17}$,0,eV,,,,,,,
PrNb$_{3}$O$_{9}$,2.8484999999999996,eV,,,,,,,
SiO$_{2}$,5.5665000000000004,eV,,,,,,,
Ce$_{3}$SiCuS$_{7}$,0.0,eV,,,,,,,
B$_{2}$H$_{12}$C$_{3}$(NO)$_{6}$,4.5761,eV,,,,,,,
Pd$_{3}$S,0.0,eV,,,,,,,
Cr$_{2}$F$_{5}$,1.4726,eV,,,,,,,
PtCI$_{2}$O,1.5903,eV,,,,,,,
Li$_{2}$SO$_{4}$,5.9904,eV,,,,,,,
Na$_{2}$CrF$_{4}$,2.9927,eV,,,,,,,
TeOF$_{2}$,4.189,eV,,,,,,,
RbGa$_{2}$P$_{5}$O$_{16}$,4.6502,eV,,,,,,,
Bi$_{2}$Ir$_{2}$O$_{7}$,0.0,eV,,,,,,,
Rb$_{2}$Nb$_{3}$Cl$_{7}$O$_{5}$,2.1459,eV,,,,,,,
Rb$_{2}$Te(H$_{6}$O$_{5}$)$_{2}$,3.0155000000000003,eV,,,,,,,
Ga(MoSe$_{2}$)$_{4}$,0.0,eV,,,,,,,
P$_{2}$Pb(XeF$_{6}$)$_{3}$,2.4778000000000002,eV,,,,,,,
In$_{2}$Si(AgS$_{3}$)$_{2}$,0.9846999999999997,eV,,,,,,,
Nb$_{4}$Te$_{9}$I$_{4}$O,0.25329999999999986,eV,,,,,,,
Y$_{2}$Zr$_{2}$O$_{7}$,2.7008,eV,,,,,,,
H$_{2}$CO$_{2}$,4.8418,eV,,,,,,,
K$_{3}$CuP$_{2}$S$_{7}$,2.2345,eV,,,,,,,
NaCrF$_{6}$,0.0,eV,,,,,,,
Ho$_{4}$Mo$_{4}$O$_{11}$,0.026799999999999713,eV,,,,,,,
Sm$_{4}$I$_{6}$O,0.0,eV,,,,,,,
CsSiBiS$_{4}$,2.5851,eV,,,,,,,
Na$_{6}$Mg(SO$_{4}$)$_{4}$,5.2539,eV,,,,,,,
Ba$_{9}$Sc$_{2}$(SiO$_{4}$)$_{6}$,4.3057,eV,,,,,,,
BaB$_{2}$F$_{8}$,8.043,eV,,,,,,,
LiCu(PO$_{3}$)$_{3}$,0.6768999999999998,eV,,,,,,,
Na$_{3}$P(SO)$_{2}$,3.2791999999999994,eV,,,,,,,
Ca$_{3}$CuRhO$_{6}$,0.0,eV,,,,,,,
Yb$_{2}$KF$_{7}$,0.0,eV,,,,,,,
NaZr$_{2}$VF$_{11}$,2.1816999999999998,eV,,,,,,,
Mn(PO$_{3}$)$_{2}$,3.8754,eV,,,,,,,
AgHgSI,1.1391000000000002,eV,,,,,,,
Pr$_{2}$Ir$_{2}$O$_{7}$,0.0,eV,,,,,,,
Ca$_{2}$CoTeO$_{6}$,2.3361000000000005,eV,,,,,,,
Na$_{4}$Li$_{5}$(BO$_{3}$)$_{3}$,3.8255,eV,,,,,,,
Hg$_{3}$Se$_{4}$O$_{5}$,1.8293,eV,,,,,,,
Mg$_{3}$Si(O$_{2}$F)$_{2}$,5.0611,eV,,,,,,,
NaAg(NO$_{2}$)$_{2}$,2.2443,eV,,,,,,,
NaTeH$_{12}$(CO)$_{3}$,2.0122,eV,,,,,,,
Yb(IO$_{3}$)$_{3}$,0,eV,,,,,,,
LaAg(PO$_{3}$)$_{4}$,3.7647999999999993,eV,,,,,,,
AsS(BrF$_{2}$)$_{3}$,2.4875000000000003,eV,,,,,,,
Ag$_{2}$PS$_{3}$,1.7759000000000005,eV,,,,,,,
SrCu$_{2}$(BO$_{3}$)$_{2}$,0.037900000000000045,eV,,,,,,,
K$_{4}$Nb$_{2}$S$_{10}$O,1.5316999999999998,eV,,,,,,,
La$_{3}$NbSe$_{2}$(O$_{2}$F)$_{2}$,1.4329999999999998,eV,,,,,,,
K$_{2}$P$_{2}$O$_{5}$F$_{2}$,5.0435,eV,,,,,,,
ZnGaNO,0.31420000000000003,eV,,,,,,,
K$_{4}$LiIO$_{6}$,2.0858,eV,,,,,,,
GdP$_{5}$O$_{14}$,3.1654,eV,,,,,,,
Ca$_{6}$Hf$_{19}$O$_{44}$,4.130800000000001,eV,,,,,,,
Tb$_{3}$Se$_{2}$ClO$_{8}$,4.0674,eV,,,,,,,
BaAlBO$_{3}$F$_{2}$,6.0642000000000005,eV,,,,,,,
NdCrS$_{2}$O,0.39950000000000063,eV,,,,,,,
SrFe$_{2}$(PO$_{4}$)$_{2}$,3.6598,eV,,,,,,,
ZnGaNO,0.0,eV,,,,,,,
K$_{2}$Ag$_{2}$GeS$_{4}$,1.4068000000000003,eV,,,,,,,
KBi$_{6}$IO$_{9}$,2.2881000000000005,eV,,,,,,,
BaZnTeCl$_{2}$O$_{3}$,3.7598,eV,,,,,,,
BH$_{9}$(CO)$_{3}$,5.7751,eV,,,,,,,
TbMn$_{2}$BiO$_{6}$,0.0,eV,,,,,,,
RbZrCdF$_{7}$,5.1017,eV,,,,,,,
TmSeClO$_{3}$,4.336799999999999,eV,,,,,,,
K(NiS)$_{2}$,0.0,eV,,,,,,,
B$_{2}$Se$_{2}$O$_{7}$,3.9417999999999997,eV,,,,,,,
PAuClF$_{3}$,3.5272,eV,,,,,,,
La$_{2}$TiZnO$_{6}$,2.9182000000000006,eV,,,,,,,
K$_{2}$PtN$_{3}$(ClO$_{2}$)$_{3}$,2.7082,eV,,,,,,,
Nd$_{3}$U(ClO$_{2}$)$_{3}$,1.4115000000000002,eV,,,,,,,
Tm$_{3}$B$_{5}$O$_{12}$,5.3919,eV,,,,,,,
La$_{10}$Se$_{14}$O,1.5518999999999998,eV,,,,,,,
RbCdAuS$_{2}$,1.9324,eV,,,,,,,
HoSeO$_{3}$F,4.2961,eV,,,,,,,
Cs$_{2}$Ba$_{2}$(CO$_{3}$)$_{3}$,4.3381,eV,,,,,,,
H$_{9}$C$_{3}$SeSN$_{2}$Cl,3.4454,eV,,,,,,,
Ca(CO$_{2}$)$_{2}$,3.1204,eV,,,,,,,
MoS$_{2}$,0.0,eV,,,,,,,
C$_{2}$S(NCl)$_{3}$,3.1683000000000003,eV,,,,,,,
KSO$_{3}$,4.9933,eV,,,,,,,
K$_{2}$MnF$_{4}$,2.8070000000000004,eV,,,,,,,
Na$_{3}$B$_{6}$NO$_{13}$,3.2938,eV,,,,,,,
Ta$_{6}$S,0,eV,,,,,,,
Sr$_{4}$Ti$_{5}$(Si$_{2}$O$_{11}$)$_{2}$,1.9373,eV,,,,,,,
BaLa$_{4}$Cu$_{5}$O$_{12}$,0.0,eV,,,,,,,
SiO$_{2}$,5.5113,eV,,,,,,,
Ba$_{5}$Er$_{2}$ZrAl$_{2}$O$_{13}$,2.5861,eV,,,,,,,
Rb$_{2}$CdSiO$_{4}$,2.4876,eV,,,,,,,
SiO$_{2}$,5.6388,eV,,,,,,,
Sc$_{2}$Te$_{5}$O$_{13}$,2.9509,eV,,,,,,,
Na$_{2}$UF$_{6}$,0.41259999999999986,eV,,,,,,,
Y$_{2}$O$_{3}$,3.9552000000000005,eV,,,,,,,
ReSb(OF$_{4}$)$_{2}$,3.7699,eV,,,,,,,
FeSO$_{3}$,2.2283999999999997,eV,,,,,,,
Li$_{3}$VF$_{6}$,2.4336,eV,,,,,,,
TlHCO$_{2}$,3.5008,eV,,,,,,,
Na$_{2}$Zn(SiO$_{3}$)$_{2}$,3.6116,eV,,,,,,,
In(PO$_{3}$)$_{3}$,4.372199999999999,eV,,,,,,,
AsS$_{6}$N$_{5}$F$_{6}$,1.7912,eV,,,,,,,
Hg$_{3}$PClO$_{4}$,2.3788,eV,,,,,,,
V$_{5}$O$_{9}$,0.5186000000000002,eV,,,,,,,
BaPt$_{2}$S$_{3}$,1.3299999999999996,eV,,,,,,,
U$_{2}$NiO$_{6}$,0.3891,eV,,,,,,,
Sb$_{8}$Br$_{2}$O$_{11}$,2.6698,eV,,,,,,,
Ba$_{6}$Ru$_{3}$(ClO$_{6}$)$_{2}$,0.0,eV,,,,,,,
NaLiY$_{2}$F$_{8}$,7.3027999999999995,eV,,,,,,,
NaErO$_{2}$,4.0544,eV,,,,,,,
BaWO$_{4}$,3.6899,eV,,,,,,,
CsAl$_{3}$(P$_{3}$O$_{10}$)$_{2}$,5.6694,eV,,,,,,,
K$_{2}$Si$_{4}$O$_{9}$,4.447,eV,,,,,,,
K$_{3}$BSb$_{4}$O$_{13}$,1.8698000000000001,eV,,,,,,,
Nb$_{2}$PbO$_{6}$,2.5364999999999998,eV,,,,,,,
Ce$_{3}$Ta(ClO$_{2}$)$_{3}$,0.0,eV,,,,,,,
Sc(ReO$_{3}$)$_{2}$,0.0,eV,,,,,,,
SrZnP$_{2}$O$_{7}$,4.4518,eV,,,,,,,
Pr$_{4}$S$_{3}$N$_{2}$,1.5229,eV,,,,,,,
Li$_{2}$Ti$_{6}$PbO$_{14}$,2.7640000000000002,eV,,,,,,,
Ce(BO$_{2}$)$_{3}$,0.0,eV,,,,,,,
Ba$_{3}$LaRu$_{2}$O$_{9}$,0.0,eV,,,,,,,
SrZr(PO$_{4}$)$_{2}$,4.1079,eV,,,,,,,
KLi$_{2}$BO$_{3}$,3.999,eV,,,,,,,
Ba$_{2}$ZnSi$_{2}$O$_{7}$,4.0007,eV,,,,,,,
KNaSO$_{4}$,4.9597,eV,,,,,,,
CaAl$_{2}$O$_{4}$,4.9819,eV,,,,,,,
AgTeO$_{3}$,1.6662000000000003,eV,,,,,,,
Sr$_{3}$Bi(ClO)$_{3}$,4.0001,eV,,,,,,,
PBr$_{3}$O,3.0735,eV,,,,,,,
Cu$_{9}$Se$_{4}$(Cl$_{3}$O$_{7}$)$_{2}$,0.0,eV,,,,,,,
CSCl(OF)$_{3}$,4.6094,eV,,,,,,,
UCu$_{2}$(PO$_{5}$)$_{2}$,0.0,eV,,,,,,,
Re$_{2}$PbO$_{6}$,0.0,eV,,,,,,,
Y$_{2}$C(NO)$_{2}$,3.9361999999999995,eV,,,,,,,
Mg$_{2}$BiPO$_{6}$,3.6229999999999998,eV,,,,,,,
Ca$_{2}$CuTe$_{4}$(ClO$_{5}$)$_{2}$,0.7174999999999998,eV,,,,,,,
S$_{3}$N$_{3}$ClO$_{2}$,2.3052,eV,,,,,,,
SrAl$_{2}$B$_{2}$O$_{7}$,4.686,eV,,,,,,,
Si$_{3}$Bi$_{2}$O$_{9}$,3.5103,eV,,,,,,,
K$_{2}$NaFeF$_{6}$,4.0922,eV,,,,,,,
Ba$_{2}$Zn(BO$_{2}$)$_{6}$,4.2700000000000005,eV,,,,,,,
PClOF$_{2}$,5.4542,eV,,,,,,,
AsC$_{2}$S$_{2}$(OF$_{3}$)$_{3}$,3.5403000000000002,eV,,,,,,,
Ba$_{2}$Sc$_{2}$B$_{4}$O$_{11}$,3.3548,eV,,,,,,,
Ba$_{2}$PrIrO$_{6}$,0.0,eV,,,,,,,
ZnB$_{4}$O$_{7}$,5.374300000000001,eV,,,,,,,
Sb$_{2}$ClO$_{2}$F$_{11}$,1.8464,eV,,,,,,,
CsFeF$_{3}$,0.0,eV,,,,,,,
CuTeO$_{3}$,0.006000000000000227,eV,,,,,,,
Rb$_{3}$U$_{2}$Ge$_{2}$O$_{11}$,0.03740000000000032,eV,,,,,,,
Ba$_{2}$ZnS$_{3}$,2.0205,eV,,,,,,,
CsMnF$_{3}$,3.4542,eV,,,,,,,
Al$_{3}$Pb$_{5}$F$_{19}$,5.1203,eV,,,,,,,
RbGa$_{3}$S$_{5}$,2.5212,eV,,,,,,,
K$_{2}$UAs$_{2}$O$_{9}$,2.4232,eV,,,,,,,
Nd$_{2}$Cu(GeO$_{4}$)$_{2}$,0.37460000000000004,eV,,,,,,,
Ag$_{2}$BiO$_{3}$,0.0,eV,,,,,,,
LiAlSiO$_{4}$,4.6935,eV,,,,,,,
WSNCl$_{5}$,1.0186,eV,,,,,,,
LiUAsO$_{6}$,2.2644,eV,,,,,,,
MnVAgO$_{4}$,1.8677000000000001,eV,,,,,,,
La$_{2}$SiS$_{5}$,2.3415,eV,,,,,,,
Ba$_{5}$Ru$_{2}$Br$_{2}$O$_{9}$,0.4718,eV,,,,,,,
Cs$_{3}$Li$_{2}$F$_{5}$,5.9268,eV,,,,,,,
Li$_{2}$TeS$_{3}$,1.4569000000000005,eV,,,,,,,
SiO$_{2}$,5.2698,eV,,,,,,,
H$_{3}$CSN(ClO)$_{2}$,2.6254,eV,,,,,,,
RbSb$_{2}$Au$_{3}$S$_{5}$,0.7259000000000002,eV,,,,,,,
Dy$_{3}$CuGeS$_{7}$,1.8098,eV,,,,,,,
WN$_{3}$F$_{5}$,3.2908,eV,,,,,,,
K$_{3}$Fe$_{5}$F$_{15}$,1.0798999999999999,eV,,,,,,,
Rb$_{4}$NpS$_{2}$ClO$_{10}$,0.05459999999999976,eV,,,,,,,
TiTlPS$_{5}$,1.1762000000000001,eV,,,,,,,
Sc$_{2}$O$_{3}$,3.4806,eV,,,,,,,
RbMnF$_{3}$,2.9422,eV,,,,,,,
Ca(BiO$_{2}$)$_{2}$,2.5433999999999997,eV,,,,,,,
Rb$_{2}$Ca$_{2}$(SO$_{4}$)$_{3}$,5.3971,eV,,,,,,,
BiB$_{2}$O$_{4}$F,4.1884999999999994,eV,,,,,,,
Sb$_{4}$OsC$_{6}$(O$_{3}$F$_{11}$)$_{2}$,4.434,eV,,,,,,,
Cd$_{4}$Te$_{6}$Cl$_{6}$O$_{13}$,3.3116999999999996,eV,,,,,,,
SrZrS$_{3}$,0.552,eV,,,,,,,
MnSnF$_{6}$,2.4057999999999997,eV,,,,,,,
KSnS$_{2}$,0.0,eV,,,,,,,
Ag$_{2}$Hg(SeO$_{3}$)$_{2}$,1.8132,eV,,,,,,,
Ag$_{2}$TeO$_{4}$,0.0,eV,,,,,,,
Na$_{3}$Li$_{4}$Th$_{6}$F$_{31}$,6.3088,eV,,,,,,,
Rb$_{2}$ZrS$_{4}$,1.9236000000000002,eV,,,,,,,
Al$_{3}$Pb$_{5}$F$_{19}$,5.0114,eV,,,,,,,
KNd(SO$_{4}$)$_{2}$,5.4174,eV,,,,,,,
ScTaO$_{4}$,4.0258,eV,,,,,,,
Ag$_{6}$GeSO$_{8}$,0.12959999999999994,eV,,,,,,,
K$_{2}$Hg$_{3}$S$_{3}$O$_{10}$,2.3637,eV,,,,,,,
Cu$_{2}$BH$_{5}$O$_{6}$,0.04090000000000016,eV,,,,,,,
KMgPO$_{4}$,4.5953,eV,,,,,,,
Ag(Bi$_{2}$S$_{3}$)$_{3}$,0.0,eV,,,,,,,
VF$_{5}$,2.9917000000000002,eV,,,,,,,
BiPO$_{4}$,3.6895000000000002,eV,,,,,,,
BaSiF$_{6}$,7.4159,eV,,,,,,,
K$_{2}$Pr$_{4}$Cl$_{9}$O$_{2}$,0.4474999999999998,eV,,,,,,,
CsGeB$_{3}$O$_{7}$,4.5981,eV,,,,,,,
Na$_{3}$Nd(BO$_{3}$)$_{2}$,3.7653000000000003,eV,,,,,,,
HgTe$_{2}$C$_{2}$(NF$_{8}$)$_{2}$,2.0748,eV,,,,,,,
ZnAgPS$_{4}$,2.1933999999999996,eV,,,,,,,
LiAl(SiO$_{3}$)$_{2}$,4.9005,eV,,,,,,,
PtS,0.5410999999999992,eV,,,,,,,
Rb$_{2}$LiVS$_{4}$,1.6476,eV,,,,,,,
Na$_{2}$FeNiF$_{7}$,2.7641999999999998,eV,,,,,,,
KHoBeF$_{6}$,7.398199999999999,eV,,,,,,,
K$_{3}$Nb$_{3}$(BO$_{6}$)$_{2}$,2.3377000000000003,eV,,,,,,,
YbCs$_{3}$(SO$_{4}$)$_{3}$,0.0,eV,,,,,,,
KNdPdO$_{3}$,0.6506000000000003,eV,,,,,,,
Eu$_{2}$B$_{5}$BrO$_{9}$,0.8801000000000005,eV,,,,,,,
MoF$_{6}$,4.2538,eV,,,,,,,
NiPtF$_{6}$,2.0413,eV,,,,,,,
Sm$_{7}$BP$_{2}$O$_{17}$,4.788600000000001,eV,,,,,,,
KIO$_{3}$,0.0,eV,,,,,,,
SNClO,4.1058,eV,,,,,,,
PH$_{10}$C$_{3}$N$_{2}$O$_{4}$F,5.1415,eV,,,,,,,
Cs$_{2}$As$_{4}$Pd$_{3}$O$_{14}$,0.32799999999999985,eV,,,,,,,
AlSBr$_{3}$N,1.8746999999999998,eV,,,,,,,
CdBiS$_{2}$Cl,1.9160000000000004,eV,,,,,,,
Cs$_{2}$KCoF$_{6}$,0.0,eV,,,,,,,
FeF$_{3}$,2.8438,eV,,,,,,,
AsC$_{3}$N$_{3}$F$_{8}$,4.0149,eV,,,,,,,
NbFeF$_{6}$,0.0,eV,,,,,,,
K$_{3}$(Mo$_{7}$O$_{11}$)$_{2}$,0.05480000000000018,eV,,,,,,,
KI(OF)$_{2}$,4.1474,eV,,,,,,,
NaGe$_{4}$(PO$_{4}$)$_{3}$,4.3844,eV,,,,,,,
H$_{9}$C$_{5}$NO$_{5}$,5.2293,eV,,,,,,,
CrHgF$_{6}$,1.417,eV,,,,,,,
SeS$_{4}$(NCl)$_{3}$,0.9559999999999997,eV,,,,,,,
H$_{7}$ClO$_{7}$,5.2091,eV,,,,,,,
CdFeC$_{5}$N$_{6}$O,2.7390000000000003,eV,,,,,,,
HoTe$_{2}$ClO$_{5}$,2.9145,eV,,,,,,,
OsOF$_{4}$,0.5956999999999999,eV,,,,,,,
CaCr$_{2}$O$_{4}$,2.5777,eV,,,,,,,
Y$_{3}$Si$_{2}$ClO$_{8}$,4.5652,eV,,,,,,,
K$_{2}$Ce(NO$_{3}$)$_{6}$,1.3666,eV,,,,,,,
PS$_{2}$N$_{3}$Cl$_{2}$(OF)$_{2}$,4.803100000000001,eV,,,,,,,
BaLi(B$_{3}$O$_{5}$)$_{3}$,5.6723,eV,,,,,,,
SiO$_{2}$,5.6471,eV,,,,,,,
SbCSF$_{11}$,4.4303,eV,,,,,,,
Ba$_{4}$Ti$_{2}$PtO$_{10}$,1.9973,eV,,,,,,,
Cs$_{2}$KVF$_{6}$,2.5362999999999998,eV,,,,,,,
Yb$_{3}$(SF$_{2}$)$_{2}$,0.0,eV,,,,,,,
Sr(MnP)$_{2}$,0.0,eV,,,,,,,
LiMnGaF$_{6}$,3.7836,eV,,,,,,,
CsCu(BiS$_{2}$)$_{2}$,0.8320000000000003,eV,,,,,,,
Li$_{2}$U$_{3}$(PO$_{5}$)$_{4}$,2.1386000000000003,eV,,,,,,,
Cs$_{2}$Co$_{3}$S$_{4}$,0.0,eV,,,,,,,
NaNbO$_{3}$,2.4098,eV,,,,,,,
Na$_{5}$Ga$_{3}$F$_{14}$,5.2178,eV,,,,,,,
SrFeF$_{5}$,3.7149,eV,,,,,,,
KrF$_{2}$,2.7303,eV,,,,,,,
Zn(PO$_{3}$)$_{2}$,4.7071,eV,,,,,,,
SiO$_{2}$,4.5333,eV,,,,,,,
Na$_{2}$Ge$_{4}$O$_{9}$,2.8749000000000002,eV,,,,,,,
Hg$_{3}$ClO,1.1735,eV,,,,,,,
Zn$_{4}$SiTePbO$_{10}$,2.4617000000000004,eV,,,,,,,
Pr$_{3}$S$_{3}$N,1.4853999999999998,eV,,,,,,,
LiYSiO$_{4}$,5.1083,eV,,,,,,,
CaFeClO$_{2}$,1.9231999999999998,eV,,,,,,,
LiUAsO$_{6}$,2.2759,eV,,,,,,,
Tl$_{2}$Cu$_{3}$(SeO$_{3}$)$_{6}$,0.28210000000000024,eV,,,,,,,