formula,Property Band Gap,Property Band Gap units,Property Band gap,Property Band gap units,Temperature (Property Band gap),Temperature (Property Band gap) units,Property Color,Temperature (Property Color),Temperature (Property Color) units
Zr(Se$_{2}$Cl$_{3}$)$_{2}$,1.3186,eV,,,,,,,
W$_{2}$CCl$_{8}$,1.2971,eV,,,,,,,
Cs$_{3}$AsO$_{4}$,3.3566000000000003,eV,,,,,,,
K$_{3}$BiO$_{4}$,1.1394,eV,,,,,,,
Hg$_{2}$SeO$_{5}$,0.7264,eV,,,,,,,
PrTe$_{2}$Se,0.0,eV,,,,,,,
Ba(BS$_{2}$)$_{2}$,2.7399,eV,,,,,,,
Rb$_{3}$B$_{7}$O$_{12}$,4.4829,eV,,,,,,,
Li$_{4}$TaN$_{3}$,2.6752,eV,,,,,,,
Bi$_{4}$I$_{2}$O$_{5}$,2.2374,eV,,,,,,,
Ba(CuTe)$_{2}$,0.6006999999999998,eV,,,,,,,
Li$_{8}$Al$_{3}$Si$_{5}$,0.0,eV,,,,,,,
Gd$_{3}$ReO$_{8}$,1.6219999999999999,eV,,,,,,,
BeBr$_{2}$,5.1775,eV,,,,,,,
BeI$_{2}$,4.1400999999999994,eV,,,,,,,
Be(N$_{3}$O$_{7}$)$_{2}$,1.2844000000000002,eV,,,,,,,
Be$_{4}$N$_{6}$O$_{19}$,3.5718,eV,,,,,,,
U(IO$_{4}$)$_{2}$,2.0423999999999998,eV,,,,,,,
Rb$_{2}$Bi$_{8}$Se$_{13}$,0.5777000000000001,eV,,,,,,,
CaSn$_{2}$F$_{6}$,3.5026,eV,,,,,,,
ZrTiAs,0.0,eV,,,,,,,
BC$_{2}$N,2.099400000000001,eV,,,,,,,
K$_{6}$Tl$_{2}$Sb$_{3}$,0.01869999999999994,eV,,,,,,,
HoInCu,0.0,eV,,,,,,,
GaBH$_{6}$,4.8941,eV,,,,,,,
CuAuSe$_{4}$,0.0,eV,,,,,,,
CeSbTe,0.0,eV,,,,,,,
Ce$_{3}$SiPd$_{5}$,1.9999999999953388E-4,eV,,,,,,,
LiMgN,2.2064999999999997,eV,,,,,,,
Dy$_{3}$S$_{2}$Cl$_{5}$,3.2556000000000003,eV,,,,,,,
Sr$_{3}$Ga$_{4}$O$_{9}$,2.8861,eV,,,,,,,
AuBrF$_{6}$,1.9126999999999998,eV,,,,,,,
Si(CN$_{2}$)$_{2}$,4.2444,eV,,,,,,,
Si$_{2}$CN$_{4}$,4.3687000000000005,eV,,,,,,,
CsSn$_{2}$Cl$_{5}$,3.0631,eV,,,,,,,
Sr$_{7}$Re$_{4}$O$_{19}$,0.0,eV,,,,,,,
Rb$_{3}$Os$_{2}$Br$_{9}$,0.48730000000000007,eV,,,,,,,
H$_{34}$C$_{19}$,5.4526,eV,,,,,,,
Ba$_{4}$Ni$_{3}$Ge$_{20}$,0.0,eV,,,,,,,
Na$_{6}$CoSe$_{4}$,0.0,eV,,,,,,,
Ba$_{4}$Ge$_{20}$Pd$_{3}$,0.0,eV,,,,,,,
Ho$_{4}$Ge$_{9}$Ir$_{13}$,0.0,eV,,,,,,,
Ho$_{3}$Ge$_{3}$Ru$_{2}$,0.0,eV,,,,,,,
Ca$_{4}$Al$_{51}$Cr$_{7}$,0.0,eV,,,,,,,
Ca(AlZn)$_{2}$,0.0,eV,,,,,,,
U$_{2}$AlCo$_{3}$,0.0,eV,,,,,,,
Y(Al$_{2}$Cr)$_{4}$,0.0,eV,,,,,,,
Mg$_{2}$Al$_{5}$Cu$_{6}$,0.0,eV,,,,,,,
Mn$_{6}$Al$_{31}$Ni$_{2}$,0.0,eV,,,,,,,
Nd(MnSi)$_{2}$,0.0,eV,,,,,,,
Al$_{4}$Mo,0.0,eV,,,,,,,
PrAl$_{3}$Ni$_{2}$,0.0,eV,,,,,,,
ThAl$_{3}$Ni$_{2}$,0.0,eV,,,,,,,
ZrAl$_{5}$Ni$_{2}$,0.0,eV,,,,,,,
H$_{4}$C$_{7}$O,2.0472,eV,,,,,,,
BaSi$_{23}$,0.0,eV,,,,,,,
Ba$_{3}$Si$_{23}$,0.0,eV,,,,,,,
Ga$_{2}$Te$_{4}$O$_{11}$,3.5027000000000004,eV,,,,,,,
K$_{5}$(DyI$_{4}$)$_{3}$,0.0,eV,,,,,,,
Tl$_{4}$SnTe$_{3}$,0.0037000000000002586,eV,,,,,,,
UMo$_{13}$P$_{9}$,0.0,eV,,,,,,,
Pr$_{4}$Se$_{3}$O$_{4}$,1.3245000000000005,eV,,,,,,,
HoCuP$_{2}$,0.0,eV,,,,,,,
ErCuP$_{2}$,0.0,eV,,,,,,,
K$_{3}$ErCl$_{6}$,5.196899999999999,eV,,,,,,,
Ba$_{4}$Ga$_{2}$O$_{7}$,3.2427,eV,,,,,,,
BaNbO$_{3}$,0.0,eV,,,,,,,
Bi$_{2}$CO$_{5}$,1.0710999999999995,eV,,,,,,,
Sc$_{6}$AgTe$_{2}$,0.0,eV,,,,,,,
CsClO$_{4}$,5.444000000000001,eV,,,,,,,
La$_{3}$GaBr$_{3}$,0.0,eV,,,,,,,
YCuP$_{2}$,0.0,eV,,,,,,,
LiBH$_{4}$,6.8115000000000006,eV,,,,,,,
Tl(FeSe)$_{2}$,0.0,eV,,,,,,,
La$_{5}$Sn$_{3}$Cl,0,eV,,,,,,,
La$_{5}$Sn$_{3}$I,0.0,eV,,,,,,,
La$_{5}$Bi$_{3}$Br,0.0,eV,,,,,,,
Sb$_{2}$BrF$_{15}$,2.9699999999999998,eV,,,,,,,
SbIF$_{10}$,4.0683,eV,,,,,,,
K$_{2}$ReI$_{6}$,0.8526,eV,,,,,,,
Ca$_{21}$(Mn$_{2}$Sb$_{9}$)$_{2}$,0.028700000000000614,eV,,,,,,,
Ti$_{2}$P,0.0,eV,,,,,,,
KGaCl$_{4}$,4.3612,eV,,,,,,,
TbBPd$_{3}$,0.0,eV,,,,,,,
Ba$_{3}$P$_{3}$I$_{2}$,0.0,eV,,,,,,,
Ba$_{5}$P$_{5}$I$_{3}$,0.0,eV,,,,,,,
Cs$_{3}$BS$_{3}$,2.5461,eV,,,,,,,
La$_{2}$Fe$_{2}$I,0.0,eV,,,,,,,
Si$_{3}$(Cl$_{4}$O)$_{2}$,5.5809,eV,,,,,,,
Rb$_{2}$WCl$_{6}$,0.0,eV,,,,,,,
Li$_{4}$HN,1.9937,eV,,,,,,,
Tb$_{5}$C$_{2}$Br$_{9}$,0.7649999999999999,eV,,,,,,,
Rb$_{4}$SnS$_{4}$,2.4082,eV,,,,,,,
RbGaCl$_{4}$,4.3998,eV,,,,,,,
Tb$_{3}$SiBr$_{3}$,0.0,eV,,,,,,,
Na$_{3}$As$_{7}$,1.4262000000000001,eV,,,,,,,
Cs$_{2}$WCl$_{6}$,0.0,eV,,,,,,,
Lu$_{3}$Ge$_{3}$Ir$_{2}$,0.0,eV,,,,,,,
TlAsSe$_{2}$,1.1440000000000001,eV,,,,,,,
Ba(CO)$_{4}$,2.5917,eV,,,,,,,
Sr$_{3}$(BS$_{3}$)$_{2}$,2.3128999999999995,eV,,,,,,,
Mg$_{5}$(HO$_{3}$)$_{2}$,3.8709,eV,,,,,,,
Mg$_{4}$H$_{2}$O$_{5}$,4.006500000000001,eV,,,,,,,
Mg$_{3}$(HO$_{2}$)$_{2}$,3.7709,eV,,,,,,,
Mg$_{2}$H$_{2}$O$_{3}$,3.5667,eV,,,,,,,
Mg$_{3}$H$_{4}$O$_{5}$,3.5652,eV,,,,,,,
Mg(HO)$_{2}$,4.1796999999999995,eV,,,,,,,
LiMoS$_{2}$,1.0286999999999997,eV,,,,,,,
Li$_{4}$GeS$_{4}$,2.4834,eV,,,,,,,
YAgO$_{2}$,2.4154,eV,,,,,,,
YAuO$_{2}$,2.6861999999999995,eV,,,,,,,
Na$_{10}$CaSn$_{12}$,0.6648999999999998,eV,,,,,,,
Na$_{10}$SrSn$_{12}$,0.6713,eV,,,,,,,
Ba$_{3}$(LiSn$_{2}$)$_{4}$,0.0,eV,,,,,,,
Zr$_{8}$Ni$_{21}$,0.007600000000000051,eV,,,,,,,
CeGa$_{4}$Os,0.0,eV,,,,,,,
HfGa$_{2}$Ni,0.0,eV,,,,,,,
U$_{2}$Al$_{19}$Co$_{6}$,0.0,eV,,,,,,,
AcClO,4.4451,eV,,,,,,,
AcBrO,4.241,eV,,,,,,,
BaP$_{8}$,0.8862999999999994,eV,,,,,,,
Ce$_{10}$Ga$_{5}$Cl$_{4}$,0.0,eV,,,,,,,
Ce$_{3}$Ga$_{4}$Cl,0.0,eV,,,,,,,
NpIO$_{5}$,0.2121000000000004,eV,,,,,,,
K$_{4}$(TiTe$_{3}$)$_{3}$,0.0,eV,,,,,,,
La$_{2}$I$_{5}$,0.17720000000000002,eV,,,,,,,
Tb$_{4}$SiBr$_{6}$,0.0,eV,,,,,,,
HgAsO$_{3}$,1.2350999999999999,eV,,,,,,,
Sb$_{2}$MoS,0.006699999999999484,eV,,,,,,,
Hg$_{2}$SeO$_{3}$,2.2652,eV,,,,,,,
LuPS$_{4}$,2.2473,eV,,,,,,,
Nd$_{2}$Sn$_{3}$,0.0,eV,,,,,,,
Tb$_{4}$Se$_{3}$N$_{2}$,1.4794,eV,,,,,,,
Nd$_{4}$Se$_{3}$N$_{2}$,1.3721,eV,,,,,,,
Sr$_{2}$GeSe$_{4}$,1.7283000000000002,eV,,,,,,,
Sr$_{2}$SnS$_{4}$,2.4697999999999998,eV,,,,,,,
W$_{6}$CCl$_{18}$,1.1546,eV,,,,,,,
KAsO$_{2}$,3.8449,eV,,,,,,,
RbAsO$_{2}$,3.8821,eV,,,,,,,
BaZn$_{5}$,0.0,eV,,,,,,,
Cs$_{3}$As$_{5}$O$_{9}$,3.1355999999999997,eV,,,,,,,
LiClO$_{4}$,5.7447,eV,,,,,,,
HfBrN,1.9204999999999997,eV,,,,,,,
Bi$_{4}$O$_{7}$,0.9039999999999999,eV,,,,,,,
Bi$_{3}$SbO$_{7}$,2.1624999999999996,eV,,,,,,,
Sr$_{11}$Bi$_{10}$,0.0,eV,,,,,,,
DyBiRh,0.0,eV,,,,,,,
TlAuF$_{6}$,1.4262000000000001,eV,,,,,,,
Y$_{2}$Au$_{5}$F$_{21}$,1.7812,eV,,,,,,,
BaSi$_{2}$O$_{5}$,4.7566,eV,,,,,,,
Zn$_{3}$(PS$_{4}$)$_{2}$,2.4186000000000005,eV,,,,,,,
Ca$_{2}$SiIr$_{2}$,0.0,eV,,,,,,,
Tb$_{2}$Se$_{2}$O$_{7}$,3.2198999999999995,eV,,,,,,,
Cs$_{2}$PdCl$_{4}$,1.7012999999999998,eV,,,,,,,
Ca$_{3}$BN$_{3}$,0.5682,eV,,,,,,,
Sr$_{2}$AuN,0.0,eV,,,,,,,
RbBF$_{4}$,7.737,eV,,,,,,,
RbHfF$_{5}$,6.8004,eV,,,,,,,
Y$_{2}$P$_{4}$O$_{13}$,5.6411,eV,,,,,,,
Mg$_{5}$(Si$_{8}$Pt$_{5}$)$_{2}$,0.0,eV,,,,,,,
In$_{2}$(Se$_{2}$O$_{5}$)$_{3}$,3.4656,eV,,,,,,,
Ti$_{5}$FeSb$_{2}$,0.0,eV,,,,,,,
Ho$_{6}$FeBi$_{2}$,0.0,eV,,,,,,,
RbTaO$_{3}$,3.5412,eV,,,,,,,
UP$_{2}$O$_{7}$,0.19919999999999938,eV,,,,,,,
BaAgBi,0.0,eV,,,,,,,
Tb(NiB)$_{2}$,0,eV,,,,,,,
Th$_{2}$Al$_{7}$,0.0,eV,,,,,,,
Al$_{23}$V$_{4}$,0.0,eV,,,,,,,
Al$_{4}$W,0.027000000000000135,eV,,,,,,,
Al$_{5}$W,0.0,eV,,,,,,,
Y$_{3}$Al,0.0,eV,,,,,,,
ErAg$_{2}$,0.0,eV,,,,,,,
MgAl$_{2}$Cu,0.0,eV,,,,,,,
ErInAg$_{2}$,0.0,eV,,,,,,,
TiAgHg$_{2}$,0.0,eV,,,,,,,
HoInAg$_{2}$,0.0,eV,,,,,,,
InAg$_{3}$,0.0,eV,,,,,,,
Li$_{2}$InAg,0.0,eV,,,,,,,
ScInAg$_{2}$,0.0,eV,,,,,,,
Li$_{2}$AgPb,0.0,eV,,,,,,,
Ce(FeSi)$_{2}$,0.0,eV,,,,,,,
Li$_{2}$AgSn,0.0,eV,,,,,,,
MgAg$_{3}$,0.0,eV,,,,,,,
NaAg$_{2}$,0.0,eV,,,,,,,
AgPt$_{3}$,0.0,eV,,,,,,,
ScAg$_{4}$,0.0,eV,,,,,,,
SrAg,0.0,eV,,,,,,,
SrAg$_{2}$,0.0,eV,,,,,,,
Sr$_{3}$Ag$_{2}$,0.0,eV,,,,,,,
TbAg$_{2}$,0.0,eV,,,,,,,
TmAg$_{2}$,0.0,eV,,,,,,,
TmAg$_{3}$,0.0,eV,,,,,,,
Zn$_{8}$Ag$_{5}$,0.0,eV,,,,,,,
Zr$_{3}$Ag,0.0,eV,,,,,,,
BaAu$_{2}$,0.0,eV,,,,,,,
BaAu$_{5}$,0.0,eV,,,,,,,
BeAu,0.0,eV,,,,,,,
Ca$_{3}$Au,0.0,eV,,,,,,,
Ca$_{5}$Au$_{2}$,0.0,eV,,,,,,,
Ca$_{5}$Au$_{3}$,0.0,eV,,,,,,,
Ca$_{7}$Au$_{3}$,0.0,eV,,,,,,,
UTeO,0.0,eV,,,,,,,
Cd$_{3}$Au,0.0,eV,,,,,,,
Cd$_{5}$Au$_{3}$,0.0,eV,,,,,,,
RbAu,0.37140000000000006,eV,,,,,,,
DyInAu$_{2}$,0.0,eV,,,,,,,
ErInAu,0.0,eV,,,,,,,
ErInAu$_{2}$,0.0,eV,,,,,,,
ErPbAu,0.0,eV,,,,,,,
GaAu,0.0,eV,,,,,,,
Al$_{2}$HgSe$_{4}$,1.4253999999999998,eV,,,,,,,
GaAu$_{2}$,0.0,eV,,,,,,,
Li$_{2}$GaAu,0.0,eV,,,,,,,
Hf$_{2}$Au,0.0,eV,,,,,,,
Ho$_{2}$Au,0.0,eV,,,,,,,
HoAu$_{3}$,0.0,eV,,,,,,,
HoAu$_{4}$,0.0,eV,,,,,,,
HoInAu$_{2}$,0.0,eV,,,,,,,
HoPbAu,0.0,eV,,,,,,,
HoSnAu,0.0235000000000003,eV,,,,,,,
Li$_{2}$InAu,0.0,eV,,,,,,,
LuInAu$_{2}$,0.0,eV,,,,,,,
ScInAu$_{2}$,0.0,eV,,,,,,,
Ca$_{2}$Ge,0.3147000000000002,eV,,,,,,,
TbCo$_{3}$B$_{2}$,0.0,eV,,,,,,,
KAu$_{2}$,0.0,eV,,,,,,,
K(SnAu$_{2}$)$_{2}$,0.0,eV,,,,,,,
Li$_{2}$PbAu,0.0,eV,,,,,,,
Li$_{2}$SbAu,0.0,eV,,,,,,,
Li$_{2}$SnAu,0.0,eV,,,,,,,
Li$_{2}$TlAu,0.0,eV,,,,,,,
Mg$_{13}$Au$_{41}$,0.026699999999999946,eV,,,,,,,
MgAu$_{3}$,0.0,eV,,,,,,,
Mn$_{2}$Au,0.0,eV,,,,,,,
Er$_{2}$CdS$_{4}$,1.1467,eV,,,,,,,
Mn$_{2}$Au$_{5}$,0.0,eV,,,,,,,
Mn$_{9}$Au$_{31}$,0.0,eV,,,,,,,
Pb$_{3}$Au,0.0,eV,,,,,,,
TbPbAu,0.0,eV,,,,,,,
PrAu$_{2}$,0.0,eV,,,,,,,
Rb$_{4}$Sn$_{2}$Au$_{7}$,0.05160000000000009,eV,,,,,,,
SmAu$_{3}$,0.0,eV,,,,,,,
SnAu$_{5}$,0.014299999999999535,eV,,,,,,,
USnAu$_{2}$,0.0,eV,,,,,,,
K$_{2}$SiF$_{6}$,7.2224,eV,,,,,,,
SrAu,0.0,eV,,,,,,,
Sr$_{3}$Au$_{2}$,0.0,eV,,,,,,,
Sr$_{7}$Au$_{3}$,0.0,eV,,,,,,,
VAu$_{2}$,0.0,eV,,,,,,,
Zn$_{3}$Au,0.0,eV,,,,,,,
BaBe$_{13}$,0.0,eV,,,,,,,
BaCdBi$_{2}$,0.0,eV,,,,,,,
BaZnBi$_{2}$,0.0,eV,,,,,,,
BaCu,0.0,eV,,,,,,,
Ba$_{8}$Ga$_{7}$,0.0,eV,,,,,,,
Sr(Mo$_{3}$S$_{4}$)$_{2}$,0.0,eV,,,,,,,
Ba$_{10}$Ga,0.0,eV,,,,,,,
Ba(RhPb$_{2}$)$_{3}$,0.0,eV,,,,,,,
BaSn$_{3}$Pt,0.0,eV,,,,,,,
BaTl$_{2}$,0.0,eV,,,,,,,
BaZn$_{2}$,0.0,eV,,,,,,,
CaSnPd,0.0,eV,,,,,,,
Be$_{2}$Cr,0.0,eV,,,,,,,
Ta$_{6}$Be$_{15}$Cu$_{8}$,0.0,eV,,,,,,,
Be$_{22}$Mo,0.0,eV,,,,,,,
Be$_{17}$Nb$_{2}$,0.0,eV,,,,,,,
NpBe$_{13}$,0.0,eV,,,,,,,
Be$_{17}$Ru$_{3}$,0.0,eV,,,,,,,
Be$_{22}$W,0.0,eV,,,,,,,
ZrBe$_{13}$,0.0,eV,,,,,,,
Ca$_{9}$Cd$_{4}$Bi$_{9}$,0.07719999999999994,eV,,,,,,,
Sr$_{9}$Cd$_{4}$Bi$_{9}$,0.0,eV,,,,,,,
MgCuBi,0.0,eV,,,,,,,
ErFe$_{4}$B,0.0,eV,,,,,,,
Mn$_{3}$(CuBi)$_{4}$,0.0,eV,,,,,,,
SrCuBi,0.0,eV,,,,,,,
DyNiBi,0.21359999999999957,eV,,,,,,,
DyBiPt,0.0,eV,,,,,,,
ErBiPt,0.0,eV,,,,,,,
HoBiPt,0.0,eV,,,,,,,
SrLiBi,0.5558000000000001,eV,,,,,,,
LuNiBi,0.013399999999999856,eV,,,,,,,
ScNiBi,0.18440000000000012,eV,,,,,,,
Yb$_{3}$Sn$_{13}$Rh$_{4}$,0.0,eV,,,,,,,
YNiBi,0.2073999999999998,eV,,,,,,,
BiPd$_{2}$Pb,0.0,eV,,,,,,,
BiPd$_{3}$,0.0,eV,,,,,,,
Bi$_{2}$Pd$_{5}$,0.0,eV,,,,,,,
YBiPd$_{2}$,0.0,eV,,,,,,,
YbBiPd,0.0,eV,,,,,,,
Bi$_{4}$Rh,0.0,eV,,,,,,,
ThBi,0.0,eV,,,,,,,
TlBi$_{2}$,0.0,eV,,,,,,,
MgGeO$_{3}$,2.4744,eV,,,,,,,
CaCu,0.0,eV,,,,,,,
Ca$_{2}$GaCu$_{2}$,0.0,eV,,,,,,,
Ca$_{3}$Ga$_{5}$,0.0,eV,,,,,,,
Ca$_{11}$Ga$_{7}$,0.0,eV,,,,,,,
CaHg$_{11}$,0.0,eV,,,,,,,
LiCaSn,0.0,eV,,,,,,,
Ca$_{2}$Pb,0.0048000000000003595,eV,,,,,,,
Ca$_{3}$Pb,0.0,eV,,,,,,,
U$_{2}$SeN$_{2}$,0.0,eV,,,,,,,
CaPt$_{5}$,0.0,eV,,,,,,,
Ca$_{3}$Tl,0.0,eV,,,,,,,
CaZn,0.0,eV,,,,,,,
Ca$_{3}$Zn,0.0,eV,,,,,,,
EuCd$_{2}$,0.0029000000000003467,eV,,,,,,,
CdHg$_{2}$,0.0,eV,,,,,,,
La$_{2}$Cd$_{17}$,0.0,eV,,,,,,,
Mg$_{3}$Cd,0.0,eV,,,,,,,
MgCd$_{3}$,0.0,eV,,,,,,,
Na$_{2}$CdSn,0.0,eV,,,,,,,
ZnCdPt$_{2}$,0.0,eV,,,,,,,
ScCd$_{3}$,0.0,eV,,,,,,,
SmCd$_{2}$,0.0,eV,,,,,,,
SrCd,0.0,eV,,,,,,,
TbCd$_{2}$,0.0,eV,,,,,,,
TbCd$_{3}$,0.0,eV,,,,,,,
Th$_{6}$Cd$_{7}$,0.0,eV,,,,,,,
TiFe,0.0,eV,,,,,,,
Y$_{3}$Al$_{5}$O$_{12}$,4.4951,eV,,,,,,,
TiCd,0.0,eV,,,,,,,
Ti$_{2}$Cd,0.0,eV,,,,,,,
TmCd$_{3}$,0.0,eV,,,,,,,
CeMg$_{2}$Cu,0.0,eV,,,,,,,
CeHg$_{2}$,0.0,eV,,,,,,,
CeIr$_{5}$,0.0,eV,,,,,,,
Mg$_{2}$GeO$_{4}$,3.4021,eV,,,,,,,
Ce(Ni$_{2}$Sn)$_{2}$,0.0,eV,,,,,,,
CeTlPd,0.0,eV,,,,,,,
La$_{3}$Sn$_{13}$Rh$_{4}$,0.05819999999999936,eV,,,,,,,
Th$_{3}$Sn$_{13}$Rh$_{4}$,0.0,eV,,,,,,,
Sr$_{3}$Sn$_{13}$Rh$_{4}$,0.0,eV,,,,,,,
Tl$_{3}$PbCl$_{5}$,3.2824000000000004,eV,,,,,,,
Tl$_{2}$S$_{5}$,1.6678999999999995,eV,,,,,,,
ThCN,1.5202,eV,,,,,,,
Nd$_{5}$Ir$_{3}$,0.0,eV,,,,,,,
Ta$_{3}$As,0.0,eV,,,,,,,
Ti$_{6}$O$_{11}$,0,eV,,,,,,,
Mn$_{4}$Al$_{19}$,0.0,eV,,,,,,,
TaS$_{3}$,0.0,eV,,,,,,,
MnTlCl$_{3}$,1.2884000000000002,eV,,,,,,,
B$_{5}$H$_{11}$,4.7463,eV,,,,,,,
DyAlNi,0.0,eV,,,,,,,
TlClO$_{4}$,4.5706999999999995,eV,,,,,,,
Ta$_{2}$Se$_{8}$I,0.0,eV,,,,,,,
Tl$_{2}$ZnI$_{4}$,2.9359,eV,,,,,,,
KPt$_{2}$S$_{3}$,1.2689999999999997,eV,,,,,,,
UCuP$_{2}$,0.0,eV,,,,,,,
Li$_{2}$BeH$_{4}$,0.0,eV,,,,,,,
V$_{5}$Sb$_{4}$,0.0,eV,,,,,,,
TbP$_{5}$O$_{14}$,5.362,eV,,,,,,,
Li$_{2}$CO$_{3}$,5.0573999999999995,eV,,,,,,,
V(NiP$_{4}$)$_{4}$,0.0,eV,,,,,,,
Nb(NiP$_{4}$)$_{4}$,0.0,eV,,,,,,,
Ni$_{4}$P$_{16}$W,0.0,eV,,,,,,,
RbAg$_{7}$S$_{4}$,0.4418000000000002,eV,,,,,,,
K(IrO$_{2}$)$_{4}$,0.00140000000000029,eV,,,,,,,
TlBF$_{4}$,5.7573,eV,,,,,,,
NdB$_{2}$Rh$_{3}$,0.0,eV,,,,,,,
GaFeCo$_{2}$,0.0,eV,,,,,,,
PrGaCo$_{2}$,0.0,eV,,,,,,,
TaGaCo$_{2}$,0.0,eV,,,,,,,
YGa$_{2}$Co$_{3}$,0.0,eV,,,,,,,
HoCo$_{3}$,0.0,eV,,,,,,,
LaCo$_{13}$,0.0,eV,,,,,,,
NaTlO$_{2}$,0.6210999999999998,eV,,,,,,,
NbCoSn,0.0,eV,,,,,,,
Sc$_{2}$Co,0.0,eV,,,,,,,
ZrCoSn,0.0,eV,,,,,,,
ThCo,0.0,eV,,,,,,,
Th$_{7}$Co$_{3}$,0.0,eV,,,,,,,
Ti$_{2}$Co,0.0,eV,,,,,,,
Zn$_{13}$Co,0.0,eV,,,,,,,
Zr$_{6}$Co$_{23}$,0.0,eV,,,,,,,
CrGaFe$_{2}$,0.0,eV,,,,,,,
Tl$_{2}$Au,0.0,eV,,,,,,,
Hf$_{2}$Ga,0.0,eV,,,,,,,
CsGa$_{7}$,0.0,eV,,,,,,,
CsK$_{2}$,0.012299999999999978,eV,,,,,,,
DyCu$_{5}$,0.0,eV,,,,,,,
ErCu$_{5}$,0.0,eV,,,,,,,
SrGaCu$_{2}$,0.09870000000000001,eV,,,,,,,
Hf$_{2}$Cu,0.0,eV,,,,,,,
HfCuHg$_{2}$,0.0,eV,,,,,,,
ZrCuHg$_{2}$,0.0,eV,,,,,,,
HoCu$_{2}$,0.0,eV,,,,,,,
HoCu$_{5}$,0.0,eV,,,,,,,
HoInCu$_{2}$,0.0,eV,,,,,,,
MgInCu$_{4}$,0.0,eV,,,,,,,
LaCu$_{4}$,0.0,eV,,,,,,,
LaCu$_{6}$,0.0,eV,,,,,,,
Li$_{2}$CuSn,0.0,eV,,,,,,,
CuNi$_{2}$Sn,0.0,eV,,,,,,,
ZnCu$_{2}$Ni,0.0,eV,,,,,,,
Cu$_{4}$Pd,0.0,eV,,,,,,,
CuSnRh$_{2}$,0.0,eV,,,,,,,
Cu$_{11}$Sb$_{3}$,0.0,eV,,,,,,,
Cu$_{10}$Sn$_{3}$,0.0,eV,,,,,,,
SrCuSn$_{2}$,0.0,eV,,,,,,,
Ti$_{2}$Cu$_{3}$,0.0,eV,,,,,,,
B$_{2}$O$_{3}$,6.3017,eV,,,,,,,
TmCu$_{5}$,0.0,eV,,,,,,,
DyMg$_{2}$,0.0,eV,,,,,,,
ZrCu$_{5}$,0.0,eV,,,,,,,
DyGa,0.0,eV,,,,,,,
DyInPd$_{2}$,0.0,eV,,,,,,,
ErMg$_{2}$,0.0,eV,,,,,,,
Er$_{2}$Ni$_{17}$,0.0,eV,,,,,,,
ErTlPd,0.0,eV,,,,,,,
TbNiC$_{2}$,0,eV,,,,,,,
Er$_{2}$Pt,0.0,eV,,,,,,,
ErSnPt$_{2}$,0.0,eV,,,,,,,
Er$_{7}$Rh$_{3}$,0.0,eV,,,,,,,
ErSn$_{2}$,0.0,eV,,,,,,,
ErZn$_{12}$,0.0,eV,,,,,,,
Er$_{6}$Zn$_{23}$,0.0,eV,,,,,,,
DySnPd,0.0,eV,,,,,,,
Zr$_{3}$Co,0.0,eV,,,,,,,
Sm$_{4}$S$_{3}$N$_{2}$,1.4003999999999999,eV,,,,,,,
DyRh$_{5}$,0.0,eV,,,,,,,
DySi$_{2}$Rh$_{3}$,0.0,eV,,,,,,,
Dy$_{5}$Ru$_{2}$,0.0,eV,,,,,,,
Dy$_{5}$Sn$_{3}$,0.0,eV,,,,,,,
Dy$_{11}$Sn$_{10}$,0.0,eV,,,,,,,
Dy$_{2}$Tl,0.0,eV,,,,,,,
DyZn$_{3}$,0.0,eV,,,,,,,
DyZn$_{5}$,0.0,eV,,,,,,,
EuTl$_{2}$,0.055299999999999905,eV,,,,,,,
HoFe$_{3}$,0.01470000000000038,eV,,,,,,,
Fe$_{3}$Pd,0.0,eV,,,,,,,
ThFe$_{3}$,0.0,eV,,,,,,,
Th$_{2}$Fe$_{7}$,0.0,eV,,,,,,,
Tm$_{2}$Fe$_{17}$,0.0,eV,,,,,,,
Y$_{6}$Fe$_{23}$,0.0,eV,,,,,,,
Hf$_{3}$Nb$_{2}$Ga$_{3}$,0.0,eV,,,,,,,
HoGa$_{4}$Ni,0.0,eV,,,,,,,
LiMg$_{2}$Ga,0.0,eV,,,,,,,
Ho(FeGe)$_{2}$,0.0,eV,,,,,,,
Mg$_{2}$Ga,0.0,eV,,,,,,,
MgGa$_{2}$,0.0,eV,,,,,,,
Sc$_{3}$(MnGa$_{3}$)$_{2}$,0.0,eV,,,,,,,
Ga$_{4}$Ni$_{3}$,0.0,eV,,,,,,,
TiGaNi,0.0,eV,,,,,,,
TiGaNi$_{2}$,0.0,eV,,,,,,,
VGaNi$_{2}$,0.0,eV,,,,,,,
YGa$_{2}$Ni$_{3}$,0.0,eV,,,,,,,
Ga$_{5}$Pd,0.0,eV,,,,,,,
ScGaPd$_{2}$,0.0,eV,,,,,,,
Zn$_{3}$Ga$_{4}$Pd$_{7}$,0.0,eV,,,,,,,
Ga$_{3}$Pt$_{5}$,0.0,eV,,,,,,,
Ga$_{17}$Rh$_{10}$,0.013799999999999812,eV,,,,,,,
Sc$_{3}$Ga$_{2}$,0.0,eV,,,,,,,
Sr$_{8}$Ga$_{7}$,0.019299999999999873,eV,,,,,,,
Ta$_{5}$Ga$_{3}$,0.0,eV,,,,,,,
ThGa,0.0,eV,,,,,,,
Th$_{3}$Ga$_{2}$,0.0,eV,,,,,,,
Ti$_{3}$Ga,0.0,eV,,,,,,,
Ti$_{2}$Ga$_{3}$,0.0,eV,,,,,,,
Ti$_{5}$Ga$_{3}$,0.0,eV,,,,,,,
Ti$_{5}$Ga$_{4}$,0.0,eV,,,,,,,
Zr$_{3}$Ti$_{2}$Ga$_{3}$,0.0,eV,,,,,,,
Tm$_{3}$Ga$_{5}$,0.0,eV,,,,,,,
YGa$_{6}$,0.0,eV,,,,,,,
ZrGa,0.0,eV,,,,,,,
ZrGa$_{2}$,0.0,eV,,,,,,,
Zr$_{3}$Ga$_{2}$,0.0,eV,,,,,,,
ZrGa$_{3}$,0.0,eV,,,,,,,
Zr$_{2}$Ga$_{3}$,0.0,eV,,,,,,,
GdTlPd,0.016300000000000203,eV,,,,,,,
Cd$_{5}$Cu$_{2}$,0.0,eV,,,,,,,
PrCu$_{6}$,0.0,eV,,,,,,,
SmCu$_{6}$,0.04329999999999945,eV,,,,,,,
Na$_{2}$CO$_{3}$,3.8437,eV,,,,,,,
Sc$_{3}$(Ga$_{3}$Fe)$_{2}$,0.0,eV,,,,,,,
Sc$_{29}$Fe$_{6}$,0.012900000000000134,eV,,,,,,,
Hf$_{11}$Ga$_{10}$,0.0,eV,,,,,,,
Nb$_{5}$Ga$_{3}$,0.0,eV,,,,,,,
Ti$_{4}$Ga$_{3}$Ni$_{2}$,0.0,eV,,,,,,,
Zn$_{36}$Ga$_{5}$Ni$_{8}$,0.0,eV,,,,,,,
HfNi$_{2}$,0.0,eV,,,,,,,
La$_{2}$Zn$_{17}$,0.0,eV,,,,,,,
Nd$_{3}$Ni$_{13}$B$_{2}$,0,eV,,,,,,,
Pr$_{2}$Zn$_{17}$,0.0,eV,,,,,,,
Nd$_{2}$Zn$_{17}$,0.0,eV,,,,,,,
Sm$_{2}$Zn$_{17}$,0.0,eV,,,,,,,
Ho$_{2}$Zn$_{17}$,0.0,eV,,,,,,,
Tm$_{2}$Zn$_{17}$,0.0,eV,,,,,,,
Lu$_{2}$Zn$_{17}$,0.0,eV,,,,,,,
KHg$_{2}$,0.0,eV,,,,,,,
K$_{5}$Hg$_{7}$,0.0,eV,,,,,,,
Mg$_{2}$Hg,0.0,eV,,,,,,,
Mn$_{2}$Hg$_{5}$,0.0,eV,,,,,,,
Hg$_{5}$Pd$_{2}$,0.0,eV,,,,,,,
ScHg$_{3}$,0.0,eV,,,,,,,
Th$_{2}$Hg,0.0,eV,,,,,,,
ThHg$_{3}$,0.0,eV,,,,,,,
YHg$_{2}$,0.0,eV,,,,,,,
YHg$_{3}$,0.0,eV,,,,,,,
MgCdAg$_{2}$,0.0,eV,,,,,,,
HoIn,0.0,eV,,,,,,,
Ho$_{10}$In$_{20}$Ni$_{9}$,0.0,eV,,,,,,,
Sm$_{2}$Te$_{4}$O$_{11}$,3.2853999999999997,eV,,,,,,,
Ho$_{5}$Pb$_{3}$,0.0,eV,,,,,,,
HoSnPd$_{2}$,0.0,eV,,,,,,,
HoTlPd,0.0,eV,,,,,,,
HoSnPt,0.0,eV,,,,,,,
Ho$_{5}$Rh$_{3}$,0.0,eV,,,,,,,
Ho$_{5}$Sn$_{3}$,0.0,eV,,,,,,,
HoZn$_{3}$,0.0,eV,,,,,,,
YMgAg,0.0,eV,,,,,,,
LiIr$_{3}$,0.0,eV,,,,,,,
Mg$_{3}$Ir,0.0,eV,,,,,,,
KAgO,1.4716,eV,,,,,,,
PaIr$_{3}$,0.0,eV,,,,,,,
TmIr$_{2}$,0.0,eV,,,,,,,
IrW,0.0,eV,,,,,,,
Ir$_{3}$W,0.0,eV,,,,,,,
YIr,0.0,eV,,,,,,,
Zn$_{11}$Ir$_{2}$,0.0,eV,,,,,,,
Zr$_{3}$Ir,0.0,eV,,,,,,,
Zr$_{5}$Ir$_{3}$,0.0,eV,,,,,,,
TlGeS$_{2}$,1.7578999999999998,eV,,,,,,,
CeAl$_{4}$Ni,0.0,eV,,,,,,,
Al$_{13}$Co$_{4}$,0.0,eV,,,,,,,
La$_{2}$Mg$_{17}$,0.0,eV,,,,,,,
LaPd$_{5}$,0.0,eV,,,,,,,
LaTlPd,0.0,eV,,,,,,,
La$_{2}$Sn$_{5}$Rh$_{3}$,0.0,eV,,,,,,,
LaSn$_{3}$Ru,0.0,eV,,,,,,,
La$_{5}$Sn$_{4}$,0.0,eV,,,,,,,
Li$_{2}$MgPb,0.0,eV,,,,,,,
LiMg$_{2}$Tl,0.0,eV,,,,,,,
Li$_{3}$Pb,0.0,eV,,,,,,,
Li$_{7}$Pb$_{2}$,0.0,eV,,,,,,,
LiPd$_{2}$Pb,0.0,eV,,,,,,,
LiPt$_{2}$,0.0,eV,,,,,,,
LiPt$_{7}$,0.013200000000000323,eV,,,,,,,
Li$_{5}$Sn$_{2}$,0.1448999999999998,eV,,,,,,,
Li$_{7}$Sn$_{2}$,0.0,eV,,,,,,,
Li$_{7}$Sn$_{3}$,0.0,eV,,,,,,,
Li$_{13}$Sn$_{5}$,0.0,eV,,,,,,,
SmAlGe,0.0,eV,,,,,,,
LuMn$_{5}$,0.0,eV,,,,,,,
Lu$_{6}$Ni$_{2}$Sn,0.0,eV,,,,,,,
NdMg$_{12}$,0.0,eV,,,,,,,
MgNi$_{2}$Sb,0.0,eV,,,,,,,
MgNi$_{2}$Sn,0.0,eV,,,,,,,
PrMg$_{2}$,0.0,eV,,,,,,,
PrMg$_{12}$,0.0,eV,,,,,,,
MgPt$_{3}$,0.0,eV,,,,,,,
Mg$_{5}$Rh$_{2}$,0.0,eV,,,,,,,
SmMg$_{3}$,0.0,eV,,,,,,,
CdSiAs$_{2}$,0.40090000000000003,eV,,,,,,,
SrMgSn,0.0,eV,,,,,,,
Sr$_{6}$Mg$_{23}$,0.0,eV,,,,,,,
Sr$_{9}$Mg$_{38}$,0.0,eV,,,,,,,
Mg$_{2}$Zn$_{11}$,0.0,eV,,,,,,,
Mn$_{3}$Pt,0.0,eV,,,,,,,
TmMn$_{2}$,0.0,eV,,,,,,,
MoRh$_{3}$,0.0,eV,,,,,,,
SnMo$_{3}$,0.0,eV,,,,,,,
U$_{2}$Mo,0.0,eV,,,,,,,
CaTa$_{4}$O$_{11}$,3.5437000000000003,eV,,,,,,,
ZrMo$_{3}$,0.0,eV,,,,,,,
Ho$_{3}$(AlNi$_{3}$)$_{2}$,0.0,eV,,,,,,,
NaPb,0.0,eV,,,,,,,
Na$_{15}$Sn$_{4}$,0.0,eV,,,,,,,
Na$_{2}$Tl,0.0,eV,,,,,,,
NbSnRh,0.0,eV,,,,,,,
Nb$_{5}$Te$_{4}$,0.0,eV,,,,,,,
NbZn$_{2}$,0.0,eV,,,,,,,
NdTlPd,0.0,eV,,,,,,,
U$_{3}$O$_{8}$,0.0,eV,,,,,,,
Ca$_{5}$(Ga$_{3}$O$_{7}$)$_{2}$,3.0724,eV,,,,,,,
NdZn$_{2}$,0.0,eV,,,,,,,
NdZn$_{5}$,0.0,eV,,,,,,,
NdZn$_{11}$,0.0,eV,,,,,,,
PuNi$_{2}$,0.0,eV,,,,,,,
SrNiSn$_{3}$,0.0,eV,,,,,,,
ZrNiSn,0.0,eV,,,,,,,
ZrNi$_{4}$Sn,0.0,eV,,,,,,,
TbNi$_{5}$,0.0,eV,,,,,,,
Th$_{7}$Ni$_{3}$,0.0,eV,,,,,,,
BeAl$_{2}$O$_{4}$,6.118099999999999,eV,,,,,,,
Th$_{2}$Ni$_{17}$,0.019099999999999895,eV,,,,,,,
Ni$_{4}$W,0.0,eV,,,,,,,
Zr$_{9}$Ni$_{11}$,0.0,eV,,,,,,,
LaAl$_{3}$Pd$_{2}$,0.0,eV,,,,,,,
Li$_{2}$AlPd,0.0,eV,,,,,,,
LiAl$_{2}$Pd,0.0,eV,,,,,,,
Li$_{2}$AlPt,0.0,eV,,,,,,,
LiAl$_{2}$Pt,0.0,eV,,,,,,,
CaSO$_{4}$,5.6745,eV,,,,,,,
Li$_{2}$AlRh,0.0,eV,,,,,,,
LiAl$_{2}$Rh,0.0,eV,,,,,,,
PuOs$_{2}$,0.0,eV,,,,,,,
Pu$_{5}$Os$_{3}$,0.0,eV,,,,,,,
PaRh$_{3}$,0.0,eV,,,,,,,
Pd$_{13}$Pb$_{9}$,0.0,eV,,,,,,,
Sr$_{2}$Pb,0.008999999999999897,eV,,,,,,,
V$_{3}$Pb,0.0,eV,,,,,,,
SrSn$_{3}$Pd,0.0,eV,,,,,,,
TaPd$_{2}$,0.0,eV,,,,,,,
TaPd$_{3}$,0.0,eV,,,,,,,
TbTlPd,0.0,eV,,,,,,,
ThPd,0.0,eV,,,,,,,
Th$_{3}$Pd$_{5}$,0.0,eV,,,,,,,
Sc$_{2}$Ni$_{12}$P$_{7}$,0.0,eV,,,,,,,
Ti$_{2}$Pd$_{3}$,0.0,eV,,,,,,,
UPd$_{3}$,4.000000000008441E-4,eV,,,,,,,
ZrPd$_{3}$,0.0,eV,,,,,,,
Sr$_{7}$Pt$_{3}$,0.0,eV,,,,,,,
ScSnPt$_{2}$,0.0,eV,,,,,,,
SmPt$_{3}$,0.0,eV,,,,,,,
Sn$_{3}$Pt$_{2}$,0.0,eV,,,,,,,
TiSnPt,0.7908,eV,,,,,,,
USnPt,0.0,eV,,,,,,,
TaPt$_{2}$,0.0,eV,,,,,,,
TaPt$_{3}$,0.0,eV,,,,,,,
Ti$_{3}$Pt$_{5}$,0.0,eV,,,,,,,
TiPt$_{8}$,0.0,eV,,,,,,,
Tl$_{2}$Pt$_{3}$,0.0,eV,,,,,,,
UPt$_{2}$,0.0,eV,,,,,,,
UPt$_{3}$,0.0,eV,,,,,,,
ZnPt$_{3}$,0.0,eV,,,,,,,
Zn$_{12}$Pt$_{7}$,0.0,eV,,,,,,,
ZrPt$_{3}$,0.0,eV,,,,,,,
Zr$_{9}$Pt$_{11}$,0.0,eV,,,,,,,
PuZn$_{2}$,0.0,eV,,,,,,,