formula,Property Band Gap,Property Band Gap units,Property Band gap,Property Band gap units,Temperature (Property Band gap),Temperature (Property Band gap) units,Property Color,Temperature (Property Color),Temperature (Property Color) units
FeH$_{4}$(ClO)$_{2}$,4.1399,eV,,,,,,,
Cu$_{3}$AsS$_{3}$,0.0,eV,,,,,,,
BaFe(Si$_{2}$O$_{5}$)$_{2}$,3.5786,eV,,,,,,,
Gd$_{2}$O$_{3}$,3.0370000000000004,eV,,,,,,,
La$_{3}$MnGaS$_{7}$,0.4502999999999995,eV,,,,,,,
MgH$_{12}$SeO$_{9}$,5.0692,eV,,,,,,,
CeP$_{5}$O$_{14}$,0.10029999999999983,eV,,,,,,,
Nb$_{2}$Pd$_{3}$Se$_{8}$,0.4910000000000001,eV,,,,,,,
Eu(SbPd)$_{2}$,0.0,eV,,,,,,,
SiBr$_{2}$,2.6702,eV,,,,,,,
K(MoO$_{2}$)$_{4}$,1.0844999999999998,eV,,,,,,,
In$_{2}$TeO$_{6}$,1.0047000000000006,eV,,,,,,,
Ni$_{2}$SnP,0.0,eV,,,,,,,
Sr(BrO$_{3}$)$_{2}$,4.1387,eV,,,,,,,
CrH$_{9}$(CN$_{2}$)$_{3}$,1.9983,eV,,,,,,,
Sc$_{7}$CBr$_{12}$,0.10050000000000026,eV,,,,,,,
UPbO$_{4}$,1.5100999999999996,eV,,,,,,,
V$_{2}$Zn$_{4}$O$_{9}$,2.5496000000000003,eV,,,,,,,
Cs$_{2}$Te$_{2}$O$_{5}$,2.6609000000000003,eV,,,,,,,
CrCuO$_{4}$,0.03970000000000007,eV,,,,,,,
NaCu$_{3}$Te$_{2}$,0.0,eV,,,,,,,
Sc$_{2}$CI$_{3}$,0.5682999999999998,eV,,,,,,,
K$_{2}$PbO$_{3}$,1.2287000000000003,eV,,,,,,,
SbSe$_{9}$Cl$_{7}$,1.0831,eV,,,,,,,
Sc$_{2}$V$_{3}$Si$_{4}$,0.0,eV,,,,,,,
KNaP$_{2}$H$_{2}$O$_{7}$,5.2201,eV,,,,,,,
NaP(HO$_{2}$)$_{2}$,5.1356,eV,,,,,,,
Nb$_{2}$P$_{4}$O$_{15}$,3.2843,eV,,,,,,,
LiScGeO$_{4}$,3.9614000000000003,eV,,,,,,,
Ba$_{2}$WO$_{5}$,3.1515,eV,,,,,,,
InGaS$_{3}$,2.3988,eV,,,,,,,
InGaSe$_{3}$,1.7506999999999997,eV,,,,,,,
Na$_{2}$As$_{4}$O$_{11}$,2.0736,eV,,,,,,,
RbReCl$_{4}$,1.0283,eV,,,,,,,
K$_{2}$Na$_{3}$InO$_{4}$,1.92,eV,,,,,,,
K$_{2}$Na$_{4}$Co$_{2}$O$_{5}$,1.2404,eV,,,,,,,
Rb$_{2}$Na$_{4}$Co$_{2}$O$_{5}$,1.2621,eV,,,,,,,
Ba$_{2}$Y$_{2}$CuPtO$_{8}$,0.2261000000000002,eV,,,,,,,
RbFeCl$_{4}$,1.305,eV,,,,,,,
Fe$_{2}$Mo$_{3}$O$_{8}$,0.26290000000000013,eV,,,,,,,
Sm(Mo$_{4}$O$_{7}$)$_{2}$,0.0,eV,,,,,,,
K$_{2}$Nb$_{4}$Fe$_{2}$O$_{13}$,1.4034,eV,,,,,,,
USiNi,0.0,eV,,,,,,,
Ba(GaPt)$_{2}$,0.0,eV,,,,,,,
BaMo$_{3}$O$_{10}$,2.4124,eV,,,,,,,
RbCeH$_{2}$S$_{2}$O$_{9}$,0.0766,eV,,,,,,,
Fe$_{7}$SiO$_{10}$,0.09240000000000048,eV,,,,,,,
NdCu(WO$_{4}$)$_{2}$,1.5763000000000003,eV,,,,,,,
Rb(OsO$_{3}$)$_{2}$,0.0,eV,,,,,,,
MoCl$_{4}$O,1.7247000000000001,eV,,,,,,,
Rb$_{3}$ZnBr$_{5}$,3.593,eV,,,,,,,
Sc$_{5}$As$_{3}$,0.0,eV,,,,,,,
CeSiOs,0.0,eV,,,,,,,
YCo$_{5}$P$_{3}$,0.037799999999999834,eV,,,,,,,
Fe$_{4}$As$_{5}$O$_{13}$,1.6975,eV,,,,,,,
Cs$_{4}$Sn$_{2}$Te$_{7}$,1.2250999999999999,eV,,,,,,,
CsMnAs,0.011600000000000055,eV,,,,,,,
Mn$_{15}$(Br$_{3}$O$_{10}$)$_{2}$,0.17090000000000005,eV,,,,,,,
USb$_{2}$Ru,0.0,eV,,,,,,,
BaPuO$_{3}$,0.0,eV,,,,,,,
Co$_{7}$P$_{6}$(HO$_{6}$)$_{4}$,2.5609,eV,,,,,,,
Cs$_{4}$Cu$_{3}$F$_{10}$,0.11959999999999993,eV,,,,,,,
Cs$_{2}$MnS$_{2}$,1.1562000000000001,eV,,,,,,,
Cu(BiO$_{2}$)$_{2}$,0.0,eV,,,,,,,
Eu$_{3}$Sb$_{5}$O$_{12}$,0.0,eV,,,,,,,
Na$_{5}$(InTe$_{3}$)$_{2}$,0.8645,eV,,,,,,,
Gd$_{3}$Sb$_{5}$O$_{12}$,2.7146000000000003,eV,,,,,,,
Eu$_{2}$BaNiO$_{5}$,0.0022999999999999687,eV,,,,,,,
Na$_{3}$B$_{5}$Pt$_{9}$,0.0,eV,,,,,,,
LaCu(WO$_{4}$)$_{2}$,1.4321000000000002,eV,,,,,,,
SmCu(WO$_{4}$)$_{2}$,1.4017,eV,,,,,,,
Nd(Mo$_{4}$O$_{7}$)$_{2}$,0.0,eV,,,,,,,
Nb$_{2}$P,0.0,eV,,,,,,,
Co$_{2}$As$_{2}$O$_{7}$,1.7401,eV,,,,,,,
CeTa$_{3}$O$_{9}$,0.0,eV,,,,,,,
Si$_{2}$Pd$_{9}$,0.0,eV,,,,,,,
NaH$_{9}$O$_{5}$,4.5247,eV,,,,,,,
BaNb$_{7}$O$_{9}$,0.0,eV,,,,,,,
Ti$_{2}$NiP$_{5}$,0.0,eV,,,,,,,
NaCuF$_{3}$,0.019200000000000106,eV,,,,,,,
NbTe$_{4}$I,0.49049999999999994,eV,,,,,,,
TbLi$_{4}$F$_{8}$,0.0,eV,,,,,,,
Na(CuO)$_{2}$,0.0,eV,,,,,,,
K$_{3}$FeO$_{4}$,0.24329999999999996,eV,,,,,,,
KMgV$_{3}$Cu$_{4}$O$_{13}$,0.0020999999999999908,eV,,,,,,,
Ho$_{2}$Mo$_{2}$C$_{3}$,0.0,eV,,,,,,,
Cu$_{3}$BiSe$_{2}$ClO$_{8}$,0.0,eV,,,,,,,
Cu(HO)$_{2}$,0.0,eV,,,,,,,
FeCuO$_{2}$,0.9379000000000004,eV,,,,,,,
TiSn$_{6}$F$_{16}$,2.7043,eV,,,,,,,
Na$_{2}$Hg$_{3}$S$_{4}$,1.3273000000000001,eV,,,,,,,
Sr$_{7}$Mn$_{4}$O$_{15}$,1.3692000000000002,eV,,,,,,,
BaNa$_{2}$V$_{2}$CuO$_{8}$,0.6910000000000001,eV,,,,,,,
MoAs$_{2}$O$_{7}$,2.5873,eV,,,,,,,
CsReO$_{4}$,4.1562,eV,,,,,,,
LiVCuO$_{4}$,0.25970000000000004,eV,,,,,,,
Ta$_{3}$Te$_{14}$Pd$_{3}$,0.0,eV,,,,,,,
Ta$_{4}$Co$_{2}$PdSe$_{12}$,0.0,eV,,,,,,,
Nb$_{3}$SiTe$_{6}$,0.0,eV,,,,,,,
K$_{2}$PdSe$_{10}$,1.0629,eV,,,,,,,
TiH$_{2}$SO$_{6}$,2.5139,eV,,,,,,,
Cs$_{2}$SnS$_{14}$,1.4665,eV,,,,,,,
Np(SiPt)$_{2}$,0.012600000000000833,eV,,,,,,,
Pu(SiIr)$_{2}$,0.011799999999999145,eV,,,,,,,
Ag$_{3}$BiO$_{3}$,1.5250000000000004,eV,,,,,,,
ThPbI$_{6}$,2.4192,eV,,,,,,,
CsCr$_{5}$Se$_{8}$,0.0020999999999999908,eV,,,,,,,
Ca$_{3}$CuIrO$_{6}$,0.0,eV,,,,,,,
Cr$_{7}$(PO$_{4}$)$_{6}$,0.6634999999999995,eV,,,,,,,
UCr$_{5}$P$_{3}$,0.0,eV,,,,,,,
CsHoS$_{2}$,2.1354,eV,,,,,,,
TmCu(WO$_{4}$)$_{2}$,1.2092,eV,,,,,,,
LuCu(WO$_{4}$)$_{2}$,1.1959999999999997,eV,,,,,,,
NbTe$_{4}$Ir,0.0,eV,,,,,,,
Sr$_{4}$V$_{3}$O$_{10}$,0.048799999999999955,eV,,,,,,,
ErCu(WO$_{4}$)$_{2}$,1.5054999999999996,eV,,,,,,,
ErCu(WO$_{4}$)$_{2}$,1.2104,eV,,,,,,,
DyCu(WO$_{4}$)$_{2}$,1.5189000000000004,eV,,,,,,,
NaTiCuS$_{3}$,0.15340000000000042,eV,,,,,,,
NaZrCuSe$_{3}$,0.30420000000000025,eV,,,,,,,
NaZrCuTe$_{3}$,0.0,eV,,,,,,,
CaCo$_{3}$(P$_{2}$O$_{7}$)$_{2}$,2.8203,eV,,,,,,,
TiIn$_{2}$O$_{5}$,1.9682000000000004,eV,,,,,,,
NaH$_{6}$BrO$_{5}$,2.1492,eV,,,,,,,
AlFePO$_{5}$,3.9118,eV,,,,,,,
MnH$_{2}$SO$_{4}$,4.0083,eV,,,,,,,
Na$_{2}$H$_{16}$O$_{9}$,4.533799999999999,eV,,,,,,,
Cs$_{4}$Pr$_{6}$C$_{2}$I$_{13}$,0.0,eV,,,,,,,
K$_{6}$Pb$_{2}$O$_{5}$,2.1249000000000002,eV,,,,,,,
TbCu(WO$_{4}$)$_{2}$,1.4594,eV,,,,,,,
YCu(WO$_{4}$)$_{2}$,1.1529999999999996,eV,,,,,,,
CsCu$_{4}$Se$_{3}$,0.0,eV,,,,,,,
Ti(PO$_{3}$)$_{3}$,0.03149999999999942,eV,,,,,,,
TiCdO$_{3}$,2.4319,eV,,,,,,,
CoCuP$_{2}$O$_{7}$,0.28969999999999985,eV,,,,,,,
Mn$_{3}$Se$_{3}$O$_{10}$,0.05790000000000006,eV,,,,,,,
Ta$_{3}$SiTe$_{6}$,0.0,eV,,,,,,,
Sm$_{2}$Co$_{7}$B$_{3}$,0.0,eV,,,,,,,
CoSnH$_{12}$(OF)$_{6}$,0.0,eV,,,,,,,
Cs$_{3}$AuO,1.3261000000000003,eV,,,,,,,
Ba$_{6}$Na$_{16}$N,0.0,eV,,,,,,,
Ba(Cu$_{3}$As)$_{2}$,0.0,eV,,,,,,,
Gd$_{2}$Ru$_{2}$O$_{7}$,0.0,eV,,,,,,,
CdInBr$_{3}$,2.2185,eV,,,,,,,
Tb$_{2}$Ba$_{2}$Ti$_{2}$Cu$_{2}$O$_{11}$,0.0,eV,,,,,,,
UPO$_{5}$,0.0037000000000002586,eV,,,,,,,
NiP$_{4}$O$_{11}$,4.9511,eV,,,,,,,
Sr$_{5}$Nb$_{5}$O$_{17}$,0.0,eV,,,,,,,
Al$_{3}$FeSi$_{2}$,0.0,eV,,,,,,,
Cs$_{2}$Sn(H$_{2}$N)$_{6}$,2.5332,eV,,,,,,,
BaP$_{2}$PbO$_{7}$,4.3622,eV,,,,,,,
V$_{2}$Hg(P$_{2}$O$_{7}$)$_{2}$,1.3438999999999999,eV,,,,,,,
EuTiAgO$_{4}$,0.0242,eV,,,,,,,
Ru(OF$_{3}$)$_{2}$,0.0,eV,,,,,,,
FeCuSe$_{2}$,0.0,eV,,,,,,,
U$_{2}$V$_{2}$O$_{11}$,1.9852,eV,,,,,,,
PrFePO,0.35020000000000007,eV,,,,,,,
SmFePO,0.3746999999999998,eV,,,,,,,
Te$_{10}$Mo$_{3}$I$_{10}$,1.1818,eV,,,,,,,
GdCuSeO,1.1960999999999995,eV,,,,,,,
SrMo$_{5}$O$_{8}$,1.4264999999999999,eV,,,,,,,
La$_{11}$V$_{4}$O$_{26}$,1.0184999999999995,eV,,,,,,,
Np$_{2}$Si$_{4}$Tc$_{3}$,0.0,eV,,,,,,,
BaLu$_{2}$CuO$_{5}$,0.0,eV,,,,,,,
TiSO$_{5}$,2.5707,eV,,,,,,,
Ni(SbO$_{3}$)$_{2}$,0.8810000000000002,eV,,,,,,,
Na$_{2}$SO$_{4}$,5.026400000000001,eV,,,,,,,
Zr$_{9}$(NiP$_{2}$)$_{2}$,0.0,eV,,,,,,,
CsSbS$_{6}$(O$_{3}$F)$_{6}$,2.627,eV,,,,,,,
CeGeRh,0.0,eV,,,,,,,
Pb$_{3}$(BrO)$_{2}$,2.3882,eV,,,,,,,
K$_{2}$CoSiO$_{4}$,2.9871,eV,,,,,,,
Rb$_{2}$NaFe(CN)$_{6}$,0.0,eV,,,,,,,
CaAl$_{2}$Si$_{2}$(H$_{2}$O$_{5}$)$_{2}$,5.0390999999999995,eV,,,,,,,
EuVO$_{4}$,2.7759,eV,,,,,,,
Nd$_{3}$(CuGe)$_{4}$,0.0,eV,,,,,,,
Ce$_{2}$MgSi$_{2}$,0.0,eV,,,,,,,
NbSbRu,0.37490000000000023,eV,,,,,,,
Ho$_{2}$Mo$_{4}$O$_{15}$,3.3221000000000003,eV,,,,,,,
U$_{5}$Ge$_{4}$,0.0,eV,,,,,,,
Hg$_{2}$Mo$_{5}$O$_{16}$,2.3392,eV,,,,,,,
La$_{3}$MoO$_{7}$,0.023600000000000065,eV,,,,,,,
Eu$_{2}$Sn$_{2}$O$_{7}$,0.0,eV,,,,,,,
Si$_{2}$P$_{2}$Pt,0.47659999999999947,eV,,,,,,,
Sr$_{3}$Fe$_{2}$Cu$_{2}$S$_{2}$O$_{5}$,0.7095000000000002,eV,,,,,,,
Sr$_{2}$CrCuSO$_{3}$,1.2915,eV,,,,,,,
Sr$_{2}$FeCuSO$_{3}$,0.9654999999999996,eV,,,,,,,
BaGd$_{2}$CoO$_{5}$,1.4514,eV,,,,,,,
Ba$_{2}$LaCu$_{3}$O$_{8}$,0.0,eV,,,,,,,
V$_{2}$Se$_{3}$O$_{11}$,2.1647,eV,,,,,,,
PtF$_{6}$,0.0,eV,,,,,,,
CsNb(CuTe$_{2}$)$_{2}$,1.0253,eV,,,,,,,
CsTa(CuTe$_{2}$)$_{2}$,1.2436999999999996,eV,,,,,,,
P$_{2}$W$_{7}$O$_{25}$,0,eV,,,,,,,
V(HgO$_{2}$)$_{2}$,1.4376,eV,,,,,,,
Tm$_{2}$Mn$_{3}$Si$_{5}$,0.0,eV,,,,,,,
CeMnSi,0.0,eV,,,,,,,
LaFeSi,0.0,eV,,,,,,,
Hf$_{5}$CoAs$_{3}$,0.0,eV,,,,,,,
Dy$_{2}$Mn$_{3}$Si$_{5}$,0.0,eV,,,,,,,
Ho$_{2}$Mn$_{3}$Si$_{5}$,0.0,eV,,,,,,,
Ni$_{2}$W$_{3}$N,0.0,eV,,,,,,,
MnCu(Te$_{2}$O$_{5}$)$_{2}$,0.6668999999999996,eV,,,,,,,
U(CoB)$_{4}$,0.0,eV,,,,,,,
U$_{3}$Co$_{7}$B$_{2}$,0.0,eV,,,,,,,
SrV$_{2}$(P$_{2}$O$_{7}$)$_{2}$,1.5044999999999997,eV,,,,,,,
Eu$_{3}$(BO$_{3}$)$_{2}$,0.3684000000000003,eV,,,,,,,
KCuPO$_{4}$,0.1797000000000002,eV,,,,,,,
Na$_{3}$(FeS$_{2}$)$_{2}$,0.0,eV,,,,,,,
InSeI,1.4358,eV,,,,,,,
Ca(LuS$_{2}$)$_{2}$,1.5810999999999997,eV,,,,,,,
P$_{3}$Pd$_{7}$,0.0,eV,,,,,,,
CdPH$_{6}$NO$_{5}$,3.2768,eV,,,,,,,
Mg$_{3}$Nb$_{6}$O$_{11}$,0.24370000000000047,eV,,,,,,,
AuBr,1.6885,eV,,,,,,,
As$_{2}$Pb$_{3}$O$_{8}$,3.3060000000000005,eV,,,,,,,
Np(BH$_{4}$)$_{4}$,0.0,eV,,,,,,,
AsSeI,1.242,eV,,,,,,,
CsB(CF$_{4}$)$_{2}$,6.6302,eV,,,,,,,
NaLi$_{3}$(H$_{2}$N)$_{4}$,2.5675999999999997,eV,,,,,,,
PW$_{3}$O$_{11}$,0.0,eV,,,,,,,
Ba$_{2}$ReO$_{5}$,0.0,eV,,,,,,,
Li$_{6}$CoCl$_{8}$,0.32289999999999996,eV,,,,,,,
Ba$_{3}$V$_{4}$O$_{13}$,2.9455999999999998,eV,,,,,,,
Li(Mo$_{4}$O$_{5}$)$_{2}$,0.0,eV,,,,,,,
Zn(Mo$_{4}$O$_{5}$)$_{2}$,0.18119999999999958,eV,,,,,,,
CsNa$_{3}$PbO$_{4}$,1.4986000000000002,eV,,,,,,,
K$_{2}$PuCl$_{6}$,0.34739999999999993,eV,,,,,,,
Pr(CoP)$_{2}$,0.0,eV,,,,,,,
BaZr$_{2}$F$_{10}$,5.7615,eV,,,,,,,
Cu$_{2}$WO$_{4}$,1.3749000000000002,eV,,,,,,,
K$_{2}$WO$_{8}$,2.927,eV,,,,,,,
KInS$_{2}$,2.3908,eV,,,,,,,
CsDyI$_{3}$,0.0,eV,,,,,,,
VCdCuO$_{4}$,1.1139999999999999,eV,,,,,,,
Ce$_{2}$(WO$_{4}$)$_{3}$,0.07929999999999993,eV,,,,,,,
Th(Re$_{2}$Si)$_{2}$,0.0,eV,,,,,,,
K$_{2}$LiInAs$_{2}$,0.6193,eV,,,,,,,
SmBeF$_{4}$,0.0,eV,,,,,,,
EuTa$_{2}$O$_{6}$,0.01639999999999997,eV,,,,,,,
Gd$_{2}$Br$_{3}$N,1.8727,eV,,,,,,,
CuP$_{4}$O$_{11}$,0.5740000000000001,eV,,,,,,,
BaGd$_{2}$PdO$_{5}$,0.03599999999999959,eV,,,,,,,
Na$_{3}$(FeSe$_{2}$)$_{2}$,0.0,eV,,,,,,,
NaHfCuSe$_{3}$,0.38450000000000006,eV,,,,,,,
HS$_{9}$N,2.3535,eV,,,,,,,
V$_{6}$Cu$_{11}$O$_{26}$,0.0036999999999998145,eV,,,,,,,
Cs$_{2}$Te$_{13}$,0.4802000000000004,eV,,,,,,,
As$_{2}$Pb$_{2}$O$_{5}$,2.9362000000000004,eV,,,,,,,
YSiPd,0.0,eV,,,,,,,
Al$_{3}$(Ni$_{10}$B$_{3}$)$_{2}$,0.0,eV,,,,,,,
Al(Ni$_{10}$B$_{7}$)$_{2}$,0.0,eV,,,,,,,
PrGePt,0.0,eV,,,,,,,
Sc$_{7}$BCl$_{12}$,0.0,eV,,,,,,,
Rb$_{4}$SnSb$_{6}$,1.0848,eV,,,,,,,
KP$_{4}$N$_{7}$,3.7455,eV,,,,,,,
RbP$_{4}$N$_{7}$,3.6942000000000004,eV,,,,,,,
PH$_{8}$BrN$_{4}$,0.0,eV,,,,,,,
Ta$_{4}$BTe$_{8}$,0.0,eV,,,,,,,
Na$_{6}$MnS$_{4}$,1.4025,eV,,,,,,,
Ce(PRh)$_{2}$,0.0,eV,,,,,,,
V$_{2}$Cu$_{2}$O$_{7}$,0.0,eV,,,,,,,
CoAsSe,0.39620000000000033,eV,,,,,,,
Ce$_{2}$Sc$_{3}$Si$_{4}$,0.0,eV,,,,,,,
Nd(Re$_{2}$Si)$_{2}$,0.0,eV,,,,,,,
Sr(CuSb)$_{2}$,0.0,eV,,,,,,,
BaNb$_{4}$O$_{6}$,0.0,eV,,,,,,,
Fe(NiS$_{2}$)$_{2}$,0.0,eV,,,,,,,
Nb$_{4}$Zn$_{2}$C,0.0,eV,,,,,,,
Ti$_{5}$Si$_{4}$,0.0,eV,,,,,,,
Nb$_{3}$P,0.0,eV,,,,,,,
PuB$_{6}$,0.0,eV,,,,,,,
B$_{8}$Ru$_{11}$,0.0,eV,,,,,,,
CeTe$_{2}$,0.0,eV,,,,,,,
Al$_{3}$(Co$_{10}$B$_{3}$)$_{2}$,0.0,eV,,,,,,,
Ti$_{3}$Al$_{2}$NiC,0.0,eV,,,,,,,
Cr$_{5}$As$_{3}$,0.0,eV,,,,,,,
TiAsRh,0.0,eV,,,,,,,
V$_{5}$As$_{3}$,0.0,eV,,,,,,,
Lu$_{2}$CoB$_{6}$,0.0,eV,,,,,,,
Co$_{21}$(B$_{3}$Sb)$_{2}$,0.0,eV,,,,,,,
Lu$_{2}$FeB$_{6}$,0.0,eV,,,,,,,
GdMnB$_{4}$,0.0,eV,,,,,,,
InPH$_{2}$O$_{5}$,3.3186999999999998,eV,,,,,,,
Cd$_{2}$Ru$_{2}$O$_{7}$,0.0,eV,,,,,,,
Sc(FeSi)$_{2}$,0.0,eV,,,,,,,
Dy$_{3}$CuGeSe$_{7}$,1.1132,eV,,,,,,,
Na$_{5}$(W$_{7}$O$_{22}$)$_{2}$,0.1299999999999999,eV,,,,,,,
Na$_{2}$ZnP$_{4}$(H$_{4}$O$_{5}$)$_{4}$,4.893199999999999,eV,,,,,,,
CrCuO$_{2}$,1.4692999999999996,eV,,,,,,,
Bi$_{2}$Se$_{4}$Cl$_{7}$,1.0179,eV,,,,,,,
CeH$_{2}$,0.0,eV,,,,,,,
PaH$_{3}$,0.0,eV,,,,,,,
Mn$_{3}$SnN,0.0,eV,,,,,,,
Al$_{13}$(CrSi)$_{4}$,0.0,eV,,,,,,,
Zr$_{3}$V$_{3}$C,0.0,eV,,,,,,,
Co$_{2}$Mo$_{4}$C,0.0,eV,,,,,,,
Zr$_{6}$Al$_{7}$Cu$_{16}$H$_{9}$,0.0,eV,,,,,,,
Dy$_{3}$Ge$_{5}$,0.0,eV,,,,,,,
LaMo$_{5}$O$_{8}$,0.9783999999999997,eV,,,,,,,
BaYFeCuO$_{5}$,0.5511000000000004,eV,,,,,,,
Tb(Ni$_{2}$P)$_{2}$,0.0,eV,,,,,,,
Zr(Ni$_{2}$P)$_{2}$,0.0,eV,,,,,,,
VNiSb,0.0,eV,,,,,,,
Mn$_{2}$SiS$_{4}$,0.35249999999999915,eV,,,,,,,
Ta$_{3}$SiNi$_{2}$,0.0,eV,,,,,,,
Nb$_{3}$Co$_{3}$C,0.0,eV,,,,,,,
Pb$_{5}$SO$_{8}$,2.4636000000000005,eV,,,,,,,
In$_{2}$Ag$_{2}$GeSe$_{6}$,0.4323999999999999,eV,,,,,,,
CeP$_{3}$H$_{8}$O$_{7}$,0.1740999999999997,eV,,,,,,,
Sr$_{2}$Cu$_{2}$Ni(SO)$_{2}$,0.0049000000000001265,eV,,,,,,,
Bi$_{2}$W$_{2}$O$_{9}$,2.3423999999999996,eV,,,,,,,
Fe$_{2}$BO$_{4}$,1.0548000000000002,eV,,,,,,,
EuSr$_{3}$RhO$_{6}$,0.036499999999999755,eV,,,,,,,
Ba$_{2}$CuWO$_{6}$,0.0,eV,,,,,,,
Ce$_{11}$O$_{20}$,7.999999999999119E-4,eV,,,,,,,
Mn$_{4}$N,0.0,eV,,,,,,,
Cr$_{12}$P$_{7}$,0.0,eV,,,,,,,
Nb$_{3}$Co$_{2}$Si,0.0,eV,,,,,,,
Cr$_{3}$IrN,0.0,eV,,,,,,,
Cr$_{3}$SiNi$_{2}$,0.0,eV,,,,,,,
Ta$_{2}$Cr$_{4}$Si$_{5}$,0.0,eV,,,,,,,
CsFeS$_{2}$,0.0,eV,,,,,,,
Cs$_{2}$Zn$_{3}$S$_{4}$,2.8432,eV,,,,,,,
Cs$_{2}$Te$_{3}$,0.6368999999999998,eV,,,,,,,
Tb$_{3}$CrSe$_{6}$,0.5550000000000002,eV,,,,,,,
Rb$_{3}$Ti$_{3}$Te$_{11}$,0.027000000000000135,eV,,,,,,,
V$_{2}$HgO$_{6}$,2.0142999999999995,eV,,,,,,,
Rb$_{2}$NaMn(CN)$_{6}$,0.0,eV,,,,,,,
Cs$_{2}$KFe(CN)$_{6}$,3.621,eV,,,,,,,
Cs$_{2}$RbFe(CN)$_{6}$,3.6228,eV,,,,,,,
Cs$_{2}$KCo(CN)$_{6}$,4.1267,eV,,,,,,,
CsTi$_{2}$Cl$_{7}$,0.2471000000000001,eV,,,,,,,
Hg$_{2}$MoO$_{4}$,2.0389,eV,,,,,,,
Sr$_{2}$CoClO$_{3}$,0.08659999999999979,eV,,,,,,,
HfV$_{2}$O$_{7}$,2.6491,eV,,,,,,,
Lu$_{4}$Ge$_{6}$Ru$_{7}$,0.07859999999999978,eV,,,,,,,
Sm$_{2}$Si$_{5}$Ru$_{3}$,0.16519999999999957,eV,,,,,,,
Dy$_{2}$Te,0.006800000000000139,eV,,,,,,,
U$_{4}$As$_{6}$Ru$_{7}$,0.0129999999999999,eV,,,,,,,
Nb$_{2}$Te$_{4}$O$_{13}$,2.5627999999999997,eV,,,,,,,
Np$_{5}$Ge$_{4}$,0.0,eV,,,,,,,
Mg$_{2}$GeB$_{2}$Rh$_{5}$,0.0,eV,,,,,,,
Sr$_{2}$MnCuSO$_{3}$,0.38169999999999993,eV,,,,,,,
Bi$_{6}$P$_{4}$PbO$_{20}$,3.3286,eV,,,,,,,
SmH$_{18}$(IO$_{3}$)$_{3}$,4.1273,eV,,,,,,,
Nd(SiAu)$_{2}$,0.0,eV,,,,,,,
KInSe$_{2}$,1.4733,eV,,,,,,,
NaP$_{2}$H$_{5}$O$_{8}$,5.6429,eV,,,,,,,
Pb$_{2}$CO$_{4}$,3.4126999999999996,eV,,,,,,,
TlV$_{3}$Cu$_{5}$O$_{13}$,0.017900000000000027,eV,,,,,,,
Tb$_{2}$Mo$_{4}$O$_{15}$,3.3306,eV,,,,,,,
CsSmZnSe$_{3}$,2.3475,eV,,,,,,,
CsHoZnSe$_{3}$,2.4693,eV,,,,,,,
CsTmZnSe$_{3}$,2.1715999999999998,eV,,,,,,,
PuH$_{18}$C$_{3}$S$_{3}$(O$_{2}$F)$_{9}$,0.0,eV,,,,,,,
Ho$_{4}$NiB$_{14}$,0.02149999999999963,eV,,,,,,,
Rb$_{3}$VS$_{4}$,1.6985999999999999,eV,,,,,,,
NClO,1.9624000000000001,eV,,,,,,,
Ba$_{2}$Co(PO$_{4}$)$_{2}$,2.9574,eV,,,,,,,
FeCoH$_{18}$(CN$_{2}$)$_{6}$,2.287,eV,,,,,,,
Na$_{4}$MoO$_{5}$,2.9246,eV,,,,,,,
Cs$_{2}$SiO$_{3}$,3.4153,eV,,,,,,,
Eu$_{2}$GeSe$_{4}$,0.0134000000000003,eV,,,,,,,
GaBPbO$_{4}$,3.3713999999999995,eV,,,,,,,
TlIn$_{5}$S$_{6}$,1.0,eV,,,,,,,
Rb(SnSe$_{2}$)$_{2}$,1.0336999999999998,eV,,,,,,,
CsMnCr(CN)$_{6}$,0.1422,eV,,,,,,,
Nb$_{9}$Co$_{4}$Ge,0,eV,,,,,,,
BaCoN,0.02619999999999978,eV,,,,,,,
K$_{2}$NaInSb$_{2}$,0.5808,eV,,,,,,,
Eu(CuSb)$_{2}$,0.006300000000000416,eV,,,,,,,
K$_{2}$NaH$_{5}$(CO$_{4}$)$_{2}$,4.3382000000000005,eV,,,,,,,
Rb$_{2}$NaH$_{5}$(CO$_{4}$)$_{2}$,4.1978,eV,,,,,,,
V$_{16}$O$_{3}$,0.03960000000000008,eV,,,,,,,
V$_{13}$O$_{16}$,0.011299999999999866,eV,,,,,,,
Ge$_{7}$Ir$_{3}$,0.13430000000000053,eV,,,,,,,
MnGePd$_{2}$,0.0,eV,,,,,,,
Cs$_{2}$SO$_{4}$,5.0111,eV,,,,,,,
CuP(HO)$_{5}$,0.0,eV,,,,,,,
CeH$_{14}$Cl$_{3}$O$_{7}$,0.02259999999999973,eV,,,,,,,
Ba$_{3}$FeO$_{5}$,0.0,eV,,,,,,,
Ce$_{2}$Ni$_{7}$P$_{4}$,0.0,eV,,,,,,,
ReH$_{8}$(Br$_{3}$N)$_{2}$,0.8133,eV,,,,,,,
ScH$_{6}$N$_{2}$Cl$_{3}$,3.8715,eV,,,,,,,
Na$_{4}$TiSe$_{4}$,1.6704,eV,,,,,,,
P$_{2}$Pb$_{3}$O$_{8}$,3.3803,eV,,,,,,,
FeAgS$_{2}$,0.0,eV,,,,,,,
Cr$_{4}$Cu$_{3}$(PO$_{4}$)$_{6}$,0.0030999999999998806,eV,,,,,,,
Eu$_{2}$Ti$_{2}$O$_{7}$,0.006799999999999695,eV,,,,,,,
MnFeAs,0.0,eV,,,,,,,
Ti$_{2}$CuSb$_{3}$,0,eV,,,,,,,
Pr$_{2}$Ni$_{7}$P$_{4}$,0.00730000000000075,eV,,,,,,,
CsC,3.1050999999999997,eV,,,,,,,
Nd$_{5}$Co$_{21}$B$_{4}$,0.0,eV,,,,,,,
BaEr$_{2}$CuO$_{5}$,0.0,eV,,,,,,,
Ba$_{5}$Co$_{5}$ClO$_{13}$,0.02560000000000029,eV,,,,,,,
CsBa$_{2}$Nb$_{3}$O$_{10}$,1.4077000000000002,eV,,,,,,,
CsLa$_{2}$CuSe$_{4}$,1.0753999999999997,eV,,,,,,,
Eu$_{2}$Si$_{2}$O$_{7}$,0.015500000000000291,eV,,,,,,,
NiPS,0.0,eV,,,,,,,
NaV$_{2}$O$_{5}$,1.3254,eV,,,,,,,
Cs$_{2}$PdC$_{2}$,1.7513999999999998,eV,,,,,,,
Cs$_{2}$PtC$_{2}$,1.2698,eV,,,,,,,
MgPd,0.0,eV,,,,,,,
Li$_{5}$ReO$_{6}$,2.1582999999999997,eV,,,,,,,
YAl$_{3}$Ni$_{2}$,0.0,eV,,,,,,,
Al$_{2}$SiO$_{5}$,5.4037999999999995,eV,,,,,,,
DyZrSb,0,eV,,,,,,,
La(MnSi)$_{2}$,0.0,eV,,,,,,,
Rb$_{2}$HgO$_{2}$,2.0173,eV,,,,,,,
RbNO$_{3}$,3.2401,eV,,,,,,,
Sc$_{3}$CoC$_{4}$,0.012900000000000134,eV,,,,,,,
SrZrO$_{3}$,3.5667,eV,,,,,,,
NaLi$_{2}$Sb,0.6800000000000002,eV,,,,,,,
SrZnF$_{4}$,5.0642,eV,,,,,,,
KSbF$_{4}$,4.4258,eV,,,,,,,
Ba$_{5}$Mg$_{18}$Si$_{13}$,0.0,eV,,,,,,,
SmCuS$_{2}$,1.1156000000000006,eV,,,,,,,
Nd$_{2}$Si$_{3}$Rh,0.0,eV,,,,,,,
Er(CuGe)$_{2}$,0.0,eV,,,,,,,
NaGdO$_{2}$,3.1172000000000004,eV,,,,,,,
Ti$_{2}$FeSe$_{4}$,0.00280000000000058,eV,,,,,,,
Dy(Al$_{2}$Fe)$_{4}$,0.0,eV,,,,,,,
Co$_{2}$(GeSe)$_{3}$,0.4079999999999995,eV,,,,,,,
CaSiO$_{3}$,3.6753,eV,,,,,,,
TaO$_{2}$,0.4284000000000008,eV,,,,,,,
Ca$_{2}$Ni$_{7}$P$_{4}$,0.029600000000000293,eV,,,,,,,
K$_{2}$Sn(HO)$_{6}$,3.6753,eV,,,,,,,
K$_{3}$Pu(PS$_{4}$)$_{2}$,0.06440000000000001,eV,,,,,,,
KPuP$_{2}$S$_{7}$,0.036900000000000155,eV,,,,,,,
La$_{3}$CuGeSe$_{7}$,1.1836000000000002,eV,,,,,,,
Pr$_{3}$MoO$_{7}$,0.0,eV,,,,,,,
Rb$_{2}$CuH$_{12}$(SeO$_{7}$)$_{2}$,0.5613,eV,,,,,,,
Nd$_{2}$Fe$_{12}$P$_{7}$,0.0,eV,,,,,,,
Pb$_{3}$(ClO)$_{2}$,2.4273999999999996,eV,,,,,,,
Ge$_{3}$Os$_{2}$,0.8456000000000001,eV,,,,,,,
Fe$_{2}$Cu(P$_{2}$O$_{7}$)$_{2}$,0.7737,eV,,,,,,,
Hf$_{2}$Ni$_{2}$Sn,0.0,eV,,,,,,,
Dy$_{2}$In$_{16}$Pt$_{7}$,0.0,eV,,,,,,,
Hf$_{5}$(In$_{2}$Rh)$_{2}$,0.0,eV,,,,,,,
Co$_{2}$B$_{2}$O$_{5}$,2.6104,eV,,,,,,,
Gd$_{3}$NbS$_{3}$O$_{4}$,1.7660999999999998,eV,,,,,,,
CsSmCdSe$_{3}$,2.0217,eV,,,,,,,
CsNdHgSe$_{3}$,1.3561000000000003,eV,,,,,,,
RbLi(H$_{2}$N)$_{2}$,2.3503,eV,,,,,,,
Cs$_{7}$Au$_{5}$O$_{2}$,0.8031999999999999,eV,,,,,,,
Rb$_{7}$Au$_{5}$O$_{2}$,0.6267999999999999,eV,,,,,,,
Tb$_{2}$Ti$_{3}$Si$_{4}$,0.0,eV,,,,,,,
Ho$_{2}$Ti$_{3}$Si$_{4}$,0.0,eV,,,,,,,
Er$_{2}$Ti$_{3}$Si$_{4}$,0.0,eV,,,,,,,
Ca$_{2}$InN,0.0,eV,,,,,,,
EuAu$_{5}$,0.0,eV,,,,,,,
In$_{3}$Au$_{10}$,0.0,eV,,,,,,,
Mn$_{5}$(NiBi$_{2}$)$_{2}$,0.0,eV,,,,,,,
CePu$_{4}$Co$_{3}$,0.0,eV,,,,,,,
Ce(Ni$_{2}$Sn)$_{2}$,0.0035000000000007248,eV,,,,,,,
Ce$_{3}$Ni$_{2}$Sn$_{7}$,0.0015999999999998238,eV,,,,,,,
V$_{6}$O$_{11}$,0.7398999999999996,eV,,,,,,,
U(HO$_{2}$)$_{2}$,2.4873000000000003,eV,,,,,,,
Y$_{2}$WO$_{6}$,3.8042000000000002,eV,,,,,,,
Sc(Fe$_{2}$P)$_{2}$,0.0,eV,,,,,,,
Pu$_{3}$Co,0.0,eV,,,,,,,
UCu$_{5}$,0.0,eV,,,,,,,
DyNiSn,0.0,eV,,,,,,,
Fe$_{2}$Sn,0.0,eV,,,,,,,
PuGa$_{4}$,3.00000000000189E-4,eV,,,,,,,
GdOs$_{2}$,0.01019999999999932,eV,,,,,,,
HfGa,0.0,eV,,,,,,,
IrPb,0.0,eV,,,,,,,
Sc$_{5}$Pb$_{3}$,0.0,eV,,,,,,,
Sn$_{2}$Ru,0.0,eV,,,,,,,
Ba$_{6}$Mn$_{5}$O$_{16}$,1.2983000000000002,eV,,,,,,,
U$_{2}$CuAs$_{2}$(H$_{4}$O$_{5}$)$_{4}$,1.0205,eV,,,,,,,
V$_{2}$Te$_{2}$O$_{9}$,2.2207,eV,,,,,,,
Nd$_{12}$Co$_{6}$Sn,0.0,eV,,,,,,,
Rb$_{2}$Ag$_{4}$S$_{3}$,0.19789999999999974,eV,,,,,,,
Eu(BS$_{2}$)$_{2}$,0.9983000000000004,eV,,,,,,,
BaV$_{13}$O$_{18}$,0.15640000000000054,eV,,,,,,,
Dy$_{2}$(WO$_{4}$)$_{3}$,4.0894,eV,,,,,,,
Cs$_{3}$O,0.0,eV,,,,,,,
KY(WO$_{4}$)$_{2}$,3.2428,eV,,,,,,,
Fe$_{2}$Te$_{4}$O$_{11}$,2.2045000000000003,eV,,,,,,,
Cs$_{2}$Pd$_{3}$S$_{4}$,1.3557000000000001,eV,,,,,,,
CsSbO$_{2}$,2.3815,eV,,,,,,,
Zr$_{2}$Si$_{4}$Ru$_{3}$,0.0,eV,,,,,,,
SmTl(WO$_{4}$)$_{2}$,2.744,eV,,,,,,,
Ce$_{3}$S$_{2}$O$_{3}$,0.002100000000000435,eV,,,,,,,
GdTiO$_{3}$,0.0,eV,,,,,,,
ZnAsHPbO$_{5}$,3.2301999999999995,eV,,,,,,,
CeAgSb$_{2}$,0.0,eV,,,,,,,
FeCuO$_{2}$,0.8056999999999999,eV,,,,,,,
CsGaSe$_{3}$,1.859,eV,,,,,,,
Ti$_{11}$Se$_{4}$,0.004499999999999282,eV,,,,,,,
CuPH$_{6}$NO$_{5}$,0.0,eV,,,,,,,
Pb$_{3}$SeO$_{5}$,2.4614000000000003,eV,,,,,,,