formula,Property Band Gap,Property Band Gap units,Property Band gap,Property Band gap units,Temperature (Property Band gap),Temperature (Property Band gap) units,Property Color,Temperature (Property Color),Temperature (Property Color) units
BaVSe$_{3}$,0.0,eV,,,,,,,
BaBiSe$_{3}$,0.7321,eV,,,,,,,
KNiCl$_{3}$,0.7022999999999999,eV,,,,,,,
SeOF$_{2}$,4.0832999999999995,eV,,,,,,,
NaLi$_{5}$Sn$_{4}$,0.0,eV,,,,,,,
RbGeCl$_{3}$,3.7552000000000003,eV,,,,,,,
P$_{10}$Au$_{7}$I,0.5276999999999994,eV,,,,,,,
SnClF,3.4437999999999995,eV,,,,,,,
NaAsSe$_{2}$,1.2044000000000001,eV,,,,,,,
Tl$_{4}$HgI$_{6}$,1.1909,eV,,,,,,,
Rb$_{6}$Si$_{10}$O$_{23}$,4.3121,eV,,,,,,,
K$_{4}$Zr$_{5}$O$_{12}$,3.1864999999999997,eV,,,,,,,
S$_{4}$(BrN)$_{3}$,1.7194,eV,,,,,,,
TeAsF$_{5}$,2.1838,eV,,,,,,,
DyNi,0.0,eV,,,,,,,
FeMo$_{3}$S$_{4}$,0.0,eV,,,,,,,
CsSnI$_{3}$,2.2107,eV,,,,,,,
UTlF$_{5}$,0.2090999999999994,eV,,,,,,,
Nb$_{3}$CuO$_{8}$,0.7487999999999997,eV,,,,,,,
AgIO$_{3}$,2.4375,eV,,,,,,,
KTlCl$_{4}$,2.3137999999999996,eV,,,,,,,
TlHg$_{5}$Cl$_{11}$,2.7125,eV,,,,,,,
Ba(SiNi)$_{2}$,0.0,eV,,,,,,,
KSb$_{2}$F$_{7}$,4.1611,eV,,,,,,,
TeO$_{2}$,2.7971000000000004,eV,,,,,,,
K$_{5}$ThF$_{9}$,5.9624,eV,,,,,,,
Na$_{5}$Zr$_{2}$F$_{13}$,5.553599999999999,eV,,,,,,,
AlPd$_{5}$I$_{2}$,0.0,eV,,,,,,,
CsSnCl$_{3}$,2.9177,eV,,,,,,,
NiCl$_{2}$,0.7567000000000002,eV,,,,,,,
IrBr$_{3}$,1.5564999999999998,eV,,,,,,,
TlBr$_{2}$,1.7922000000000002,eV,,,,,,,
SbBr$_{3}$,3.3684,eV,,,,,,,
Nb$_{5}$Sb$_{4}$,0.0,eV,,,,,,,
ErCo$_{5}$,0.0,eV,,,,,,,
RbCdBr$_{3}$,2.7524,eV,,,,,,,
NaIO$_{4}$,1.8559999999999999,eV,,,,,,,
Na$_{2}$CoCl$_{4}$,0.7301,eV,,,,,,,
LiUF$_{5}$,0.2607999999999997,eV,,,,,,,
As$_{3}$(HO$_{2}$)$_{5}$,3.0438,eV,,,,,,,
SnAsF$_{7}$,3.3358000000000003,eV,,,,,,,
Ca$_{12}$Be$_{17}$O$_{29}$,3.6698999999999997,eV,,,,,,,
RbNiBr$_{3}$,0.47230000000000016,eV,,,,,,,
CaF$_{2}$,7.1148,eV,,,,,,,
Sn$_{4}$P$_{3}$,0.031500000000000306,eV,,,,,,,
TlP$_{5}$,1.1813000000000002,eV,,,,,,,
Mo$_{8}$P$_{5}$,0.0,eV,,,,,,,
Li$_{3}$InO$_{3}$,2.8858000000000006,eV,,,,,,,
KAuO$_{2}$,1.0739,eV,,,,,,,
LiBiF$_{6}$,2.5394,eV,,,,,,,
NaBiF$_{6}$,2.7096,eV,,,,,,,
RbBiF$_{6}$,2.6172,eV,,,,,,,
CsBiF$_{6}$,2.8234,eV,,,,,,,
BaCu$_{4}$S$_{3}$,0.03790000000000049,eV,,,,,,,
Sr(HO)$_{2}$,4.0304,eV,,,,,,,
B$_{4}$PF$_{9}$,5.712,eV,,,,,,,
KBrO$_{4}$,3.0759,eV,,,,,,,
LiPd,0.0,eV,,,,,,,
Sn$_{2}$BF$_{7}$,4.400799999999999,eV,,,,,,,
Sn$_{3}$BF$_{9}$,4.3624,eV,,,,,,,
PaCl$_{5}$,2.4189,eV,,,,,,,
Zr(IO$_{3}$)$_{4}$,3.1750999999999996,eV,,,,,,,
TlBiTe$_{2}$,0.45509999999999984,eV,,,,,,,
TmIO,3.3943,eV,,,,,,,
ZrCl,0.0,eV,,,,,,,
Au$_{2}$Se$_{4}$O$_{11}$,1.4326,eV,,,,,,,
RbCrI$_{3}$,0.15979999999999972,eV,,,,,,,
As(IF$_{2}$)$_{3}$,1.3305,eV,,,,,,,
GaTeCl,2.1702,eV,,,,,,,
KCuCl$_{3}$,0.0022999999999999687,eV,,,,,,,
Tl$_{3}$PbBr$_{5}$,3.1285999999999996,eV,,,,,,,
Al$_{2}$PdCl$_{8}$,1.5737,eV,,,,,,,
Li$_{7}$SbO$_{6}$,3.4971999999999994,eV,,,,,,,
BaLi$_{2}$Si,0.0,eV,,,,,,,
YCl$_{3}$,4.9300999999999995,eV,,,,,,,
BaBr$_{2}$,4.3731,eV,,,,,,,
Ba(PO$_{3}$)$_{2}$,5.269,eV,,,,,,,
CN,4.8639,eV,,,,,,,
AlPS$_{4}$,2.6141,eV,,,,,,,
S$_{8}$O,2.4234999999999998,eV,,,,,,,
LiTe$_{3}$,0.18930000000000025,eV,,,,,,,
Ta$_{6}$S,0.0,eV,,,,,,,
U$_{2}$BiN$_{2}$,0.0,eV,,,,,,,
Th$_{2}$BiN$_{2}$,0.0,eV,,,,,,,
TbPd$_{3}$,0.0,eV,,,,,,,
NbPS,0.0,eV,,,,,,,
NbSbF$_{10}$,4.3499,eV,,,,,,,
Sb$_{2}$TeF$_{14}$,3.9650999999999996,eV,,,,,,,
PaBr$_{4}$,0.0411999999999999,eV,,,,,,,
WSCl$_{4}$,1.9711,eV,,,,,,,
TcOF$_{4}$,0.9928999999999999,eV,,,,,,,
Na$_{3}$PaF$_{8}$,4.2399,eV,,,,,,,
CeAs,0.0,eV,,,,,,,
Sn$_{2}$OF$_{2}$,2.6708000000000003,eV,,,,,,,
Ag$_{4}$P$_{2}$S$_{7}$,1.6476000000000002,eV,,,,,,,
Li$_{5}$TlO$_{4}$,1.6600000000000001,eV,,,,,,,
Tl$_{2}$O,0.5714000000000001,eV,,,,,,,
Tc$_{2}$O$_{7}$,2.6664,eV,,,,,,,
BN$_{3}$Cl$_{2}$,3.2518000000000002,eV,,,,,,,
Li$_{2}$ThN$_{2}$,2.2243999999999993,eV,,,,,,,
Ta$_{3}$N$_{5}$,1.2140999999999997,eV,,,,,,,
Ba$_{6}$Fe$_{8}$S$_{15}$,0.0,eV,,,,,,,
TiBe$_{2}$,0.0,eV,,,,,,,
Te$_{2}$AuCl,0.0,eV,,,,,,,
Sn$_{3}$(PO$_{4}$)$_{2}$,3.4768000000000003,eV,,,,,,,
YUO$_{4}$,0.0,eV,,,,,,,
BaTeS$_{3}$,1.9088000000000003,eV,,,,,,,
Cr$_{2}$Te$_{3}$,0.0,eV,,,,,,,
NaSO$_{2}$,2.3189,eV,,,,,,,
Cs$_{2}$ThCl$_{6}$,4.6918999999999995,eV,,,,,,,
CNCl,5.8354,eV,,,,,,,
Fe$_{3}$Sn$_{2}$,0.0,eV,,,,,,,
K$_{3}$W$_{2}$Cl$_{9}$,1.3375000000000001,eV,,,,,,,
ScCl,0.0,eV,,,,,,,
Li$_{6}$Br$_{3}$N,2.0856999999999997,eV,,,,,,,
YbSn$_{3}$,0.0,eV,,,,,,,
Cr$_{2}$NiS$_{4}$,0.0,eV,,,,,,,
Sc$_{7}$Cl$_{10}$,0.0,eV,,,,,,,
NaFeCl$_{4}$,1.2305,eV,,,,,,,
TlSb$_{3}$S$_{5}$,1.6193999999999997,eV,,,,,,,
Rb$_{2}$CoI$_{4}$,0.5542,eV,,,,,,,
SeO$_{3}$,2.4312,eV,,,,,,,
Nb$_{3}$Au,0.0,eV,,,,,,,
K$_{2}$Zr$_{2}$O$_{5}$,3.8226,eV,,,,,,,
VPCl$_{9}$,0.12019999999999997,eV,,,,,,,
K$_{3}$TlF$_{6}$,3.7863,eV,,,,,,,
K$_{3}$InF$_{6}$,5.322100000000001,eV,,,,,,,
Te$_{2}$AuI,0.0,eV,,,,,,,
Cd$_{4}$As$_{2}$I$_{3}$,1.1726,eV,,,,,,,
PI$_{3}$,2.2746,eV,,,,,,,
Tl$_{4}$S$_{3}$,0.8601000000000001,eV,,,,,,,
Si(PbSe$_{2}$)$_{2}$,1.8203999999999998,eV,,,,,,,
P$_{2}$Pd$_{15}$,0.0,eV,,,,,,,
Ca(IO$_{3}$)$_{2}$,3.5813000000000006,eV,,,,,,,
UBrO$_{2}$,0.11479999999999979,eV,,,,,,,
Na$_{2}$TeO$_{4}$,1.8037,eV,,,,,,,
La$_{2}$ReO$_{5}$,1.0111999999999997,eV,,,,,,,
Hf$_{2}$Fe,0.0,eV,,,,,,,
Al(HO)$_{3}$,4.9963,eV,,,,,,,
As$_{4}$S$_{3}$,2.3035,eV,,,,,,,
Cs$_{3}$Bi$_{2}$Br$_{9}$,2.5995999999999997,eV,,,,,,,
CaClF,5.6701999999999995,eV,,,,,,,
CuTe$_{2}$O$_{5}$,0.0,eV,,,,,,,
K$_{2}$AgBi,0.6777,eV,,,,,,,
SiTe$_{2}$,0.0,eV,,,,,,,
TlPbI$_{3}$,2.1427000000000005,eV,,,,,,,
Ta$_{2}$SnO$_{7}$,1.4837999999999996,eV,,,,,,,
Ag$_{3}$AuS$_{2}$,0.1802999999999999,eV,,,,,,,
CsNbO$_{3}$,3.319,eV,,,,,,,
Na$_{14}$Cd$_{2}$O$_{9}$,1.3840999999999999,eV,,,,,,,
CeAg,0.008300000000000196,eV,,,,,,,
Rb$_{9}$O$_{2}$,0,eV,,,,,,,
Na$_{2}$Pd$_{3}$O$_{4}$,0.43409999999999993,eV,,,,,,,
Rb$_{2}$In$_{4}$O$_{7}$,1.4515999999999996,eV,,,,,,,
Na$_{4}$B$_{2}$O$_{5}$,3.6854,eV,,,,,,,
K$_{3}$(PtO$_{2}$)$_{2}$,0.0,eV,,,,,,,
Ba$_{10}$Al$_{3}$Ge$_{7}$,0.0,eV,,,,,,,
CsFeCl$_{4}$,1.4014,eV,,,,,,,
NaSb$_{3}$F$_{10}$,4.968,eV,,,,,,,
Te$_{5}$(O$_{2}$F$_{11}$)$_{2}$,2.867,eV,,,,,,,
Sc$_{2}$GeO$_{5}$,4.1263,eV,,,,,,,
Cd$_{2}$As$_{3}$I,0.7611999999999997,eV,,,,,,,
As(S$_{2}$F$_{3}$)$_{2}$,0.0,eV,,,,,,,
Na$_{4}$P$_{2}$O$_{7}$,4.416,eV,,,,,,,
SrSe,2.231,eV,,,,,,,
Zn$_{3}$(AsO$_{3}$)$_{2}$,3.5393,eV,,,,,,,
Pb$_{7}$(ClF$_{6}$)$_{2}$,4.207599999999999,eV,,,,,,,
Sr$_{2}$P$_{6}$O$_{17}$,5.326,eV,,,,,,,
K$_{2}$Zr$_{7}$Cl$_{18}$,0,eV,,,,,,,
Li$_{8}$Pb$_{3}$,0.0,eV,,,,,,,
Be(PO$_{3}$)$_{2}$,6.026,eV,,,,,,,
Cu$_{5}$(PO$_{5}$)$_{2}$,0.0,eV,,,,,,,
Ho$_{6}$Fe$_{23}$,0.0,eV,,,,,,,
CsB$_{9}$H$_{14}$,3.8007,eV,,,,,,,
As$_{4}$(Pb$_{3}$S$_{5}$)$_{3}$,1.5730999999999997,eV,,,,,,,
K$_{2}$ReF$_{8}$,1.0682,eV,,,,,,,
KIn$_{2}$F$_{7}$,3.9021999999999997,eV,,,,,,,
TbNi$_{2}$,0.0,eV,,,,,,,
Nb$_{6}$C$_{5}$,0.0,eV,,,,,,,
Cd$_{3}$(PO$_{4}$)$_{2}$,2.2063,eV,,,,,,,
Ho$_{6}$(Ga$_{3}$Co)$_{7}$,0.005199999999999427,eV,,,,,,,
ZrAs$_{2}$,0.0,eV,,,,,,,
Bi$_{4}$Se$_{3}$,0.0,eV,,,,,,,
Be$_{4}$TeO$_{7}$,1.2806999999999995,eV,,,,,,,
U$_{3}$Fe$_{2}$Si$_{7}$,0.0,eV,,,,,,,
BH$_{7}$N$_{2}$,5.6370000000000005,eV,,,,,,,
U(PO$_{3}$)$_{4}$,0.2829999999999999,eV,,,,,,,
ErSCl,2.9329,eV,,,,,,,
Ce$_{2}$SeF$_{4}$,0.0,eV,,,,,,,
Na$_{8}$Ga$_{2}$O$_{7}$,2.2588000000000004,eV,,,,,,,
YIr$_{2}$,0.0,eV,,,,,,,
Na$_{2}$PbO$_{2}$,2.4071,eV,,,,,,,
Na$_{6}$PbO$_{4}$,1.3501000000000003,eV,,,,,,,
Ge$_{19}$(PBr)$_{4}$,1.4055,eV,,,,,,,
Ge$_{19}$(AsI)$_{4}$,1.0131000000000001,eV,,,,,,,
Te$_{3}$Cl$_{2}$,1.3481999999999998,eV,,,,,,,
Cs$_{3}$Sb$_{2}$Cl$_{9}$,2.3937,eV,,,,,,,
Nd$_{2}$O$_{3}$,3.812,eV,,,,,,,
CrCl$_{3}$,1.4075,eV,,,,,,,
K$_{2}$TcCl$_{6}$,1.1425999999999998,eV,,,,,,,
TiBr$_{4}$,2.7818,eV,,,,,,,
Rb$_{2}$SnI$_{6}$,0.12429999999999986,eV,,,,,,,
Cs$_{2}$SnI$_{6}$,0.2884,eV,,,,,,,
NiBr$_{2}$,0.0,eV,,,,,,,
NiI$_{2}$,0.0,eV,,,,,,,
IBr,1.4022999999999999,eV,,,,,,,
LaNi$_{3}$,0.018299999999999983,eV,,,,,,,
Cd(IO$_{3}$)$_{2}$,3.2739000000000003,eV,,,,,,,
CsBr$_{3}$,2.1967,eV,,,,,,,
PaBr$_{5}$,1.9592,eV,,,,,,,
K$_{3}$MoCl$_{6}$,1.6431,eV,,,,,,,
ReCl$_{5}$,0.0,eV,,,,,,,
AuCl$_{3}$,1.345,eV,,,,,,,
Te$_{2}$Br,0.6562999999999999,eV,,,,,,,
BaU$_{2}$O$_{7}$,2.0533,eV,,,,,,,
PuB,0.0,eV,,,,,,,
RbB$_{10}$H$_{9}$,4.4008,eV,,,,,,,
ThI$_{2}$,0.0,eV,,,,,,,
LiAlH$_{4}$,4.729,eV,,,,,,,
Te$_{2}$I,0.6558000000000002,eV,,,,,,,
Zn$_{2}$(PS$_{3}$)$_{3}$,1.7947000000000002,eV,,,,,,,
Ca$_{2}$B$_{6}$O$_{11}$,5.639,eV,,,,,,,
Li$_{5}$B$_{4}$,0.023800000000000043,eV,,,,,,,
PuPt$_{4}$,0,eV,,,,,,,
Ba(FeS$_{2}$)$_{2}$,0.0,eV,,,,,,,
U$_{2}$Cl$_{5}$O$_{2}$,0.0,eV,,,,,,,
CsI$_{2}$Br,1.9762,eV,,,,,,,
TiPCl$_{9}$,2.1639,eV,,,,,,,
IrCl$_{3}$,1.8911,eV,,,,,,,
Mg$_{2}$Ga$_{5}$,0.0,eV,,,,,,,
HS$_{3}$N,3.0889,eV,,,,,,,
TiGa,0.0,eV,,,,,,,
Rb$_{4}$In$_{2}$S$_{5}$,2.0926,eV,,,,,,,
Nb$_{2}$P$_{5}$,0.0,eV,,,,,,,
TaPS$_{6}$,0.8658000000000001,eV,,,,,,,
K$_{5}$As$_{3}$O$_{10}$,3.057,eV,,,,,,,
KCu$_{4}$S$_{3}$,0.0,eV,,,,,,,
Y$_{2}$Cl$_{3}$,0.7587000000000002,eV,,,,,,,
LaBr,0.0,eV,,,,,,,
Ba$_{2}$As,0.0,eV,,,,,,,
NaSnS$_{2}$,0.0,eV,,,,,,,
Tl$_{4}$O$_{3}$,1.0917000000000003,eV,,,,,,,
Cd$_{2}$P$_{2}$O$_{7}$,2.7107,eV,,,,,,,
LiP$_{7}$,1.6526999999999998,eV,,,,,,,
K$_{2}$TeI$_{6}$,1.7434999999999998,eV,,,,,,,
PH$_{4}$Br,3.9898000000000002,eV,,,,,,,
HoMn$_{2}$,0.0,eV,,,,,,,
Sr$_{3}$Zr$_{2}$O$_{7}$,3.0929,eV,,,,,,,
K$_{2}$PtBr$_{6}$,1.1688,eV,,,,,,,
BaB$_{4}$O$_{7}$,5.1593,eV,,,,,,,
Sc(BC)$_{2}$,0.0,eV,,,,,,,
H$_{3}$ClO$_{5}$,5.4698,eV,,,,,,,
ThI$_{4}$,1.8296999999999999,eV,,,,,,,
Y$_{6}$UO$_{12}$,1.9485999999999999,eV,,,,,,,
S$_{3}$(NCl)$_{2}$,1.7123000000000002,eV,,,,,,,
Zr$_{3}$N$_{4}$,0.9707999999999997,eV,,,,,,,
Sb$_{4}$Br$_{2}$O$_{5}$,2.376,eV,,,,,,,
InClO,2.3644999999999996,eV,,,,,,,
InBrO,1.9948,eV,,,,,,,
Li$_{2}$Si,0.0051000000000001044,eV,,,,,,,
RbCoCl$_{3}$,0.0,eV,,,,,,,
BiI,0.927,eV,,,,,,,
Bi$_{6}$Br$_{7}$,1.4121000000000001,eV,,,,,,,
CrB$_{4}$,0.0,eV,,,,,,,
H$_{3}$OF,6.7352,eV,,,,,,,
KTlO,1.1655000000000002,eV,,,,,,,
As$_{2}$S$_{2}$F$_{3}$,2.3662,eV,,,,,,,
CsHgBr$_{3}$,0.0,eV,,,,,,,
Al$_{2}$CuO$_{4}$,0.0,eV,,,,,,,
ZrAl$_{2}$,0.0,eV,,,,,,,
AsH$_{3}$,0.0,eV,,,,,,,
Pd(S$_{3}$N)$_{2}$,1.2357,eV,,,,,,,
USeO$_{5}$,1.7328999999999999,eV,,,,,,,
BPS$_{4}$,2.2625,eV,,,,,,,
AuI,2.0853,eV,,,,,,,
SO$_{2}$,2.8367999999999998,eV,,,,,,,
CCl$_{2}$O,4.5857,eV,,,,,,,
ICl$_{3}$,1.7688,eV,,,,,,,
BeCo,0.0,eV,,,,,,,
HfH$_{2}$,0.0,eV,,,,,,,
CrBr$_{3}$,1.267,eV,,,,,,,
GaSbCl$_{6}$,3.928,eV,,,,,,,
Re$_{2}$P$_{5}$,0.4830999999999994,eV,,,,,,,
As$_{2}$S$_{2}$O$_{9}$,4.0514,eV,,,,,,,
NaNp$_{2}$F$_{9}$,0.0,eV,,,,,,,
TeAuI,1.1164,eV,,,,,,,
K$_{2}$CdO$_{2}$,1.3576,eV,,,,,,,
BiF$_{5}$,1.8137999999999999,eV,,,,,,,
PdI$_{2}$,0.9333999999999998,eV,,,,,,,
Be(B$_{3}$H$_{7}$)$_{2}$,4.2788,eV,,,,,,,
K$_{2}$Sb$_{4}$S$_{7}$,1.5436999999999999,eV,,,,,,,
SrAl$_{4}$,0.0,eV,,,,,,,
AsXeF$_{7}$,2.8914,eV,,,,,,,
Na$_{6}$Ge$_{2}$S$_{7}$,2.4261999999999997,eV,,,,,,,
In$_{2}$(PS$_{3}$)$_{3}$,1.4261,eV,,,,,,,
KAlCl$_{4}$,5.286300000000001,eV,,,,,,,
Be$_{4}$B,0.0,eV,,,,,,,
AlTl$_{2}$F$_{5}$,4.0814,eV,,,,,,,
Ga$_{2}$Au,0.0,eV,,,,,,,
PrSi$_{2}$,0.0,eV,,,,,,,
Li$_{3}$ThF$_{7}$,5.6857999999999995,eV,,,,,,,
UBrN,0.0,eV,,,,,,,
UIN,0.0,eV,,,,,,,
K$_{4}$I$_{2}$O$_{9}$,1.9183,eV,,,,,,,
W$_{3}$Br$_{8}$,0.0,eV,,,,,,,
Li$_{6}$Si$_{2}$O$_{7}$,4.7951999999999995,eV,,,,,,,
Co(BW)$_{3}$,0.0,eV,,,,,,,
V$_{3}$AsC,0.0,eV,,,,,,,
RhCl$_{3}$,1.5211999999999999,eV,,,,,,,
Nb$_{3}$Br$_{8}$,0.03069999999999995,eV,,,,,,,
Nb$_{3}$I$_{8}$,0.041100000000000136,eV,,,,,,,
H$_{5}$IO$_{6}$,2.3706,eV,,,,,,,
NClO$_{6}$,1.4162,eV,,,,,,,
U(BiO$_{3}$)$_{2}$,1.3333000000000004,eV,,,,,,,
Cd$_{2}$AsCl$_{2}$,1.0820000000000003,eV,,,,,,,
Hg(Mo$_{3}$Cl$_{7}$)$_{2}$,1.7411000000000003,eV,,,,,,,
HoAg,0.0,eV,,,,,,,
TcCl$_{4}$,0.7828999999999999,eV,,,,,,,
XeIF$_{7}$,3.0663,eV,,,,,,,
CsReBr$_{4}$,0.16399999999999998,eV,,,,,,,
TiBr$_{2}$,0.0,eV,,,,,,,
SbAs$_{2}$Cl$_{13}$,1.1627,eV,,,,,,,
NbPCl$_{10}$,2.2683,eV,,,,,,,
TaPCl$_{10}$,2.3345,eV,,,,,,,
BaTi$_{5}$O$_{11}$,2.6952000000000003,eV,,,,,,,
SrBe$_{3}$O$_{4}$,4.1295,eV,,,,,,,
K$_{2}$S$_{5}$O$_{16}$,4.5508,eV,,,,,,,
Nb$_{2}$Se,0.0,eV,,,,,,,
BaB$_{8}$O$_{13}$,5.5451,eV,,,,,,,
Li$_{4}$H$_{5}$Rh,0.0,eV,,,,,,,
Li$_{4}$H$_{4}$Rh,0.0,eV,,,,,,,
B$_{4}$H$_{5}$,2.8803,eV,,,,,,,
Fe$_{3}$Se$_{4}$,0.0,eV,,,,,,,
K$_{4}$Ge$_{23}$,0.0,eV,,,,,,,
TlAgI$_{2}$,1.5659,eV,,,,,,,
BaSn$_{2}$S$_{3}$,1.3045,eV,,,,,,,
Rb$_{3}$Cu$_{2}$Cl$_{7}$,0.16620000000000001,eV,,,,,,,
Ba$_{3}$SiS$_{5}$,2.8127,eV,,,,,,,
Te$_{6}$Cl$_{2}$O$_{11}$,2.92,eV,,,,,,,
Ba(GeP)$_{2}$,0.5134000000000003,eV,,,,,,,
ScPd,0.0,eV,,,,,,,
Ba(GeAs)$_{2}$,0.024799999999999933,eV,,,,,,,
Li$_{2}$Te$_{2}$O$_{5}$,3.4847000000000006,eV,,,,,,,
RbTiI$_{3}$,0.0,eV,,,,,,,
CS$_{14}$,2.5353,eV,,,,,,,
NbCl$_{3}$O,2.4017999999999997,eV,,,,,,,
Ag$_{3}$BO$_{3}$,0.0,eV,,,,,,,
Ag$_{3}$O,0.0,eV,,,,,,,
ZnP$_{2}$,1.4620000000000002,eV,,,,,,,
B$_{7}$H$_{10}$,2.5117,eV,,,,,,,
Ag$_{3}$P$_{11}$,0.8255999999999997,eV,,,,,,,
SmClO,4.876199999999999,eV,,,,,,,
PICl$_{6}$,1.7713999999999999,eV,,,,,,,
K$_{2}$MoCl$_{6}$,0.0,eV,,,,,,,
Rb$_{2}$TiCl$_{6}$,2.1471,eV,,,,,,,
Cs$_{2}$TiCl$_{6}$,2.2291,eV,,,,,,,
Rb$_{2}$SeCl$_{6}$,2.6051,eV,,,,,,,
Ta$_{2}$Si,0.0,eV,,,,,,,
Cs$_{2}$SeCl$_{6}$,2.7535,eV,,,,,,,
Rb$_{2}$ZrCl$_{6}$,3.5620000000000003,eV,,,,,,,
Tl$_{2}$SnCl$_{6}$,2.4814,eV,,,,,,,
Tl$_{2}$TeCl$_{6}$,2.5741000000000005,eV,,,,,,,
Tl$_{2}$PtCl$_{6}$,1.7373999999999998,eV,,,,,,,
K$_{2}$OsBr$_{6}$,0.0,eV,,,,,,,
NaHF$_{2}$,6.8137,eV,,,,,,,
Na$_{3}$Bi,0.0,eV,,,,,,,
K$_{2}$TiCl$_{6}$,2.0826000000000002,eV,,,,,,,
Na$_{2}$Te,2.0247,eV,,,,,,,
Cr$_{3}$Se$_{4}$,0.0,eV,,,,,,,
Zn$_{2}$Ge$_{3}$O$_{8}$,2.3392,eV,,,,,,,
NiP,0.0,eV,,,,,,,
CaSe$_{2}$O$_{5}$,3.4779000000000004,eV,,,,,,,
TiIN,0.0,eV,,,,,,,
TiBrN,0.5597000000000001,eV,,,,,,,
TiNCl,0.5613000000000001,eV,,,,,,,
Hg$_{3}$(SeCl)$_{2}$,1.7701,eV,,,,,,,
Hg$_{3}$(TeCl)$_{2}$,1.9124999999999999,eV,,,,,,,
Hg$_{3}$(TeBr)$_{2}$,1.6997,eV,,,,,,,
TaCl$_{4}$F,3.0922,eV,,,,,,,
H$_{3}$I$_{3}$N$_{2}$,0.8184,eV,,,,,,,
PdBr$_{2}$,0.8979,eV,,,,,,,
SbI$_{5}$F$_{6}$,0.939,eV,,,,,,,
Ca$_{5}$Zn$_{3}$,0.0,eV,,,,,,,
Ce(Re$_{2}$Si)$_{2}$,0.0,eV,,,,,,,
UTa$_{2}$O$_{8}$,1.2312000000000003,eV,,,,,,,
AlClO,5.5876,eV,,,,,,,
BF$_{2}$,4.8995999999999995,eV,,,,,,,
KMgCl$_{3}$,4.4851,eV,,,,,,,
MoS$_{2}$Cl$_{3}$,1.4570999999999998,eV,,,,,,,
VNCl$_{4}$,1.2547000000000001,eV,,,,,,,
Ba$_{2}$PCl,1.2595,eV,,,,,,,
RhBr$_{3}$,1.2551,eV,,,,,,,
MgTi$_{2}$O$_{4}$,0.0,eV,,,,,,,
Ta$_{2}$O,0.0,eV,,,,,,,
B$_{2}$H$_{3}$,3.074,eV,,,,,,,
NaSb$_{5}$O$_{8}$,2.6771,eV,,,,,,,
Nb$_{3}$Cl$_{7}$,0.9765000000000001,eV,,,,,,,
Cs$_{2}$GeCl$_{6}$,2.215,eV,,,,,,,
Ba$_{3}$(Si$_{2}$P$_{3}$)$_{2}$,0.4059999999999997,eV,,,,,,,
Zr$_{3}$GeO$_{8}$,3.8969,eV,,,,,,,
K(V$_{5}$S$_{8}$)$_{2}$,0.0,eV,,,,,,,
NO$_{2}$,2.8133999999999997,eV,,,,,,,
Bi$_{2}$SO$_{2}$,0.8247,eV,,,,,,,
B$_{5}$H$_{11}$N$_{2}$,3.8592999999999997,eV,,,,,,,
B$_{5}$H$_{9}$N,3.7727,eV,,,,,,,
La$_{2}$Re$_{3}$B$_{7}$,0.04449999999999932,eV,,,,,,,
ErNiB$_{4}$,0.0,eV,,,,,,,
BF$_{3}$,8.132,eV,,,,,,,
Ba(NO$_{2}$)$_{2}$,2.3587000000000002,eV,,,,,,,
Zr$_{3}$AlN,0.0,eV,,,,,,,
Cd$_{3}$AsCl$_{3}$,1.4485,eV,,,,,,,
LiIr,0.014499999999999957,eV,,,,,,,
Ni$_{12}$P$_{5}$,0.0,eV,,,,,,,
K$_{4}$MnCl$_{6}$,2.4284,eV,,,,,,,
BiSe,0.0,eV,,,,,,,
FeSbS,0.5463000000000005,eV,,,,,,,
Sb$_{6}$Pb$_{4}$S$_{13}$,0.8506,eV,,,,,,,
Fe$_{12}$N$_{5}$,0,eV,,,,,,,
Bi$_{2}$Te$_{2}$S,0.43679999999999986,eV,,,,,,,
BiAsO$_{4}$,3.1574000000000004,eV,,,,,,,
Na$_{3}$BiO$_{3}$,2.8361,eV,,,,,,,
K$_{2}$BeO$_{2}$,2.9204,eV,,,,,,,
AgBiSe$_{2}$,0.19069999999999965,eV,,,,,,,
Ca$_{3}$SiO$_{5}$,3.6959999999999997,eV,,,,,,,
Sc$_{3}$Si$_{4}$Ni$_{11}$,0.0,eV,,,,,,,
Ti$_{8}$C$_{5}$,0.0,eV,,,,,,,
Ti$_{2}$PCl$_{13}$,2.3184,eV,,,,,,,
GeI$_{2}$,2.022,eV,,,,,,,
TbCl,0.0,eV,,,,,,,
TbBr,0.0,eV,,,,,,,
KEr$_{2}$F$_{7}$,6.9713,eV,,,,,,,
AsClF$_{8}$,3.3572,eV,,,,,,,
NbAlO$_{4}$,3.3831999999999995,eV,,,,,,,
Ge$_{2}$S$_{3}$I$_{2}$,2.2528,eV,,,,,,,
LaCl,0,eV,,,,,,,
AuSe,0.26239999999999997,eV,,,,,,,
Li$_{7}$Si$_{2}$,0.056400000000000006,eV,,,,,,,
Rb$_{2}$SnO$_{2}$,2.2294,eV,,,,,,,
Li$_{9}$Ge$_{4}$,0.0,eV,,,,,,,
CdBr$_{2}$,2.9379999999999997,eV,,,,,,,
AlICl$_{6}$,2.2636000000000003,eV,,,,,,,
Na$_{2}$SbF$_{5}$,4.824,eV,,,,,,,
Tl$_{6}$SI$_{4}$,1.7794000000000003,eV,,,,,,,
Er(PO$_{3}$)$_{3}$,5.9037999999999995,eV,,,,,,,
Fe$_{5}$C$_{2}$,0.0,eV,,,,,,,
AgClO$_{3}$,2.3879,eV,,,,,,,
Pb$_{2}$ClO$_{2}$,0.0,eV,,,,,,,
W$_{2}$N,0.0,eV,,,,,,,
TlAgSe$_{2}$,0.0,eV,,,,,,,
BiO,0.0,eV,,,,,,,
Sn(SbTe$_{2}$)$_{2}$,0.25900000000000034,eV,,,,,,,
Ge(BiTe$_{2}$)$_{2}$,0.8887,eV,,,,,,,
Si$_{2}$H$_{6}$O,5.2626,eV,,,,,,,
SNCl,2.6799999999999997,eV,,,,,,,
Mo$_{2}$N,0.0,eV,,,,,,,
CuN$_{3}$,1.5383,eV,,,,,,,
TmAg,0.0,eV,,,,,,,
Zr$_{3}$(Si$_{3}$Cu$_{2}$)$_{2}$,0.0,eV,,,,,,,
CI$_{4}$,1.1002999999999998,eV,,,,,,,
Li$_{6}$Ge$_{2}$O$_{7}$,3.8132,eV,,,,,,,
YCu$_{5}$,0.0,eV,,,,,,,
K$_{2}$CdN$_{12}$,2.911,eV,,,,,,,
AcCl$_{3}$,5.0859000000000005,eV,,,,,,,
AcBr$_{3}$,4.1045,eV,,,,,,,
PuBr$_{3}$,0.0,eV,,,,,,,
NdBr$_{3}$,2.9211,eV,,,,,,,
SmBr$_{3}$,2.9285,eV,,,,,,,
PuI$_{3}$,0.0,eV,,,,,,,
LaI$_{3}$,2.0643000000000002,eV,,,,,,,
SiP,1.7395,eV,,,,,,,
U(OF)$_{2}$,2.0451,eV,,,,,,,
PuClO,0.0,eV,,,,,,,
PuBrO,0.0,eV,,,,,,,
PrClO,4.698500000000001,eV,,,,,,,
YClO,5.0908,eV,,,,,,,
Np(OF)$_{2}$,0.03180000000000005,eV,,,,,,,
BrF$_{5}$,3.4378,eV,,,,,,,
IF$_{7}$,1.4652999999999998,eV,,,,,,,
CBrN,5.1,eV,,,,,,,
B$_{2}$H$_{5}$,6.3448,eV,,,,,,,
HgBrO$_{3}$,3.1922,eV,,,,,,,
H$_{2}$SeO$_{3}$,4.4855,eV,,,,,,,
Ca$_{3}$Al$_{2}$Ge$_{3}$,0.0,eV,,,,,,,
KNb$_{3}$O$_{8}$,2.4762,eV,,,,,,,
K$_{5}$CuSb$_{2}$,0.7470000000000001,eV,,,,,,,
PuC,0.0,eV,,,,,,,
USi$_{3}$,0.0,eV,,,,,,,
Rb$_{3}$Mn$_{2}$Br$_{7}$,1.1275,eV,,,,,,,
H$_{6}$OF$_{4}$,7.3988000000000005,eV,,,,,,,
As$_{2}$(SO$_{4}$)$_{3}$,4.5725,eV,,,,,,,
Ca(Cu$_{2}$As)$_{2}$,0.0,eV,,,,,,,
BaHgS$_{2}$,1.1569,eV,,,,,,,
CeCu$_{2}$,3.00000000000189E-4,eV,,,,,,,
Tl$_{2}$Sn$_{2}$S$_{3}$,0.8384999999999998,eV,,,,,,,
ReNF$_{6}$,2.3175999999999997,eV,,,,,,,
MnI$_{2}$,1.1707,eV,,,,,,,
H$_{5}$BrO$_{2}$,4.3774,eV,,,,,,,
H$_{2}$O$_{2}$,4.511,eV,,,,,,,
Li$_{4}$Ge$_{9}$O$_{20}$,2.9382,eV,,,,,,,
Na$_{8}$Ti$_{5}$O$_{14}$,3.5098000000000003,eV,,,,,,,
Be(H$_{2}$N)$_{2}$,3.3225,eV,,,,,,,
NbCrSe$_{5}$,0,eV,,,,,,,
HfRu,0.0,eV,,,,,,,
AlCuCl$_{4}$,2.5112000000000005,eV,,,,,,,
Sr$_{5}$(Br$_{4}$Cl)$_{2}$,4.443899999999999,eV,,,,,,,
Na$_{6}$CdCl$_{8}$,4.0226,eV,,,,,,,
YSiPd$_{2}$,0.0,eV,,,,,,,
Sn$_{2}$SO$_{5}$,3.5104,eV,,,,,,,
TcP$_{4}$,0.9091000000000005,eV,,,,,,,
AsF$_{3}$,5.359999999999999,eV,,,,,,,
TcP$_{3}$,0.4488000000000003,eV,,,,,,,
Li$_{8}$Nb$_{2}$O$_{9}$,3.2086,eV,,,,,,,
Cu$_{2}$P$_{7}$,0.6893000000000002,eV,,,,,,,
BaP$_{10}$,1.2913999999999994,eV,,,,,,,
Mo$_{2}$SBr$_{2}$,0.9874999999999998,eV,,,,,,,
NbTeBr$_{3}$,0.5913000000000002,eV,,,,,,,
LaP$_{2}$,0.5579999999999998,eV,,,,,,,
Hf(BH$_{4}$)$_{4}$,5.7222,eV,,,,,,,
Pb$_{9}$(Br$_{5}$O$_{2}$)$_{2}$,2.9011000000000005,eV,,,,,,,
Tl$_{3}$AgI$_{5}$,1.0507,eV,,,,,,,
TmCl$_{3}$,4.917,eV,,,,,,,
AlP$_{2}$I$_{9}$,1.6553,eV,,,,,,,
KTlBr$_{4}$,1.8089,eV,,,,,,,
BaBrCl,4.9288,eV,,,,,,,
LuAl$_{3}$,0.07670000000000066,eV,,,,,,,
SbTeI,0.8605999999999998,eV,,,,,,,
B$_{9}$H$_{11}$C$_{2}$,3.6614,eV,,,,,,,
P$_{2}$Rh$_{3}$,0.0,eV,,,,,,,
Ba(BiS$_{2}$)$_{2}$,0.9465999999999997,eV,,,,,,,
YbSn,0.0,eV,,,,,,,
LiGeTe$_{2}$,0.4629000000000003,eV,,,,,,,
Sb$_{2}$F$_{7}$,3.8056,eV,,,,,,,
SbS$_{8}$Cl$_{3}$,2.8448,eV,,,,,,,
ThNCl,2.4974000000000007,eV,,,,,,,
ThBrN,2.6393,eV,,,,,,,
ThIN,2.699,eV,,,,,,,
LiDy$_{2}$Cl$_{5}$,0.1485000000000003,eV,,,,,,,
Ca$_{3}$AsCl$_{3}$,1.8384,eV,,,,,,,
Rb$_{2}$TeI$_{6}$,1.6225,eV,,,,,,,
La$_{2}$Be$_{2}$O$_{5}$,3.9238,eV,,,,,,,
UCuO$_{4}$,0.0,eV,,,,,,,
RbPaF$_{6}$,3.984,eV,,,,,,,
K$_{2}$Ti$_{2}$O$_{5}$,3.2268,eV,,,,,,,
K$_{3}$Mn$_{2}$Cl$_{7}$,1.4235,eV,,,,,,,
PbBr$_{2}$,3.1375,eV,,,,,,,
Na$_{2}$Mn$_{2}$S$_{3}$,0.49150000000000027,eV,,,,,,,
K$_{2}$SnTe$_{5}$,0.5637999999999996,eV,,,,,,,
Rb$_{2}$PdBr$_{6}$,0.619,eV,,,,,,,
KAs$_{2}$F$_{7}$,4.7762,eV,,,,,,,
Pb$_{4}$IF$_{7}$,2.9146,eV,,,,,,,
Ca$_{5}$(AlBi$_{3}$)$_{2}$,0.0,eV,,,,,,,
P$_{4}$Se$_{3}$I$_{2}$,2.0715999999999997,eV,,,,,,,
Sb$_{2}$S$_{3}$,1.2828,eV,,,,,,,
Si$_{2}$H$_{2}$S$_{3}$,3.3542,eV,,,,,,,
In$_{2}$(TeO$_{3}$)$_{3}$,3.0171,eV,,,,,,,
B$_{20}$H$_{26}$O,1.0827,eV,,,,,,,