formula,Property Band Gap,Property Band Gap units,Property Band gap,Property Band gap units,Temperature (Property Band gap),Temperature (Property Band gap) units,Property Color,Temperature (Property Color),Temperature (Property Color) units
Mo$_{2}$P$_{2}$O$_{11}$,1.6407,eV,,,,,,,
Mo$_{3}$P$_{3}$O$_{16}$,0.0,eV,,,,,,,
V$_{3}$Si,0.0,eV,,,,,,,
VPO$_{5}$,1.9882,eV,,,,,,,
Co$_{3}$B$_{7}$ClO$_{13}$,2.2683000000000004,eV,,,,,,,
Co$_{3}$B$_{7}$IO$_{13}$,2.2508999999999997,eV,,,,,,,
BaCoBP$_{2}$HO$_{9}$,3.0073,eV,,,,,,,
BaEr$_{2}$CoO$_{5}$,1.9923999999999995,eV,,,,,,,
K$_{2}$CoH$_{8}$(CO$_{5}$)$_{2}$,3.0343,eV,,,,,,,
Rb$_{2}$CoH$_{8}$(CO$_{5}$)$_{2}$,2.9036999999999997,eV,,,,,,,
Na$_{2}$CoH$_{8}$(SO$_{6}$)$_{2}$,3.2849,eV,,,,,,,
U$_{2}$Co$_{3}$O$_{8}$,0.3506,eV,,,,,,,
Co$_{3}$AgP$_{3}$(HO$_{6}$)$_{2}$,2.4393000000000002,eV,,,,,,,
CrBPbO$_{4}$,2.2339,eV,,,,,,,
LaCrHO$_{5}$,2.5218000000000003,eV,,,,,,,
Li$_{2}$FePO$_{4}$F,4.0613,eV,,,,,,,
FeBPbO$_{4}$,2.0864000000000003,eV,,,,,,,
Ca(FeO$_{2}$)$_{2}$,1.7306,eV,,,,,,,
Fe$_{2}$P$_{3}$(HO$_{3}$)$_{3}$,2.5402,eV,,,,,,,
AlFeO$_{3}$,1.9962,eV,,,,,,,
LaMn$_{2}$O$_{5}$,1.1301000000000005,eV,,,,,,,
RbMnP$_{3}$HO$_{10}$,0.7619,eV,,,,,,,
Mn$_{3}$O$_{4}$,0.5210999999999997,eV,,,,,,,
Mn(PO$_{3}$)$_{3}$,1.7993,eV,,,,,,,
MnBPbO$_{4}$,0.9108999999999998,eV,,,,,,,
CaMnSiHO$_{5}$,1.2381000000000002,eV,,,,,,,
DyIn,0.0,eV,,,,,,,
PuFe$_{2}$,0.0,eV,,,,,,,
Ca$_{2}$MnAs$_{2}$(H$_{2}$O$_{5}$)$_{2}$,2.4949999999999997,eV,,,,,,,
Mn$_{2}$GeO$_{4}$,1.0831,eV,,,,,,,
Mn$_{2}$GeO$_{4}$,0.3272999999999997,eV,,,,,,,
Sr$_{2}$MnGe$_{2}$O$_{7}$,2.3461,eV,,,,,,,
PrMn$_{2}$O$_{5}$,1.0968999999999998,eV,,,,,,,
NaMn$_{3}$P$_{3}$(HO$_{6}$)$_{2}$,3.3230999999999997,eV,,,,,,,
MnH$_{8}$(ClO$_{2}$)$_{2}$,3.8803,eV,,,,,,,
Bi$_{2}$MoO$_{6}$,2.1292999999999997,eV,,,,,,,
AlVMoO$_{7}$,2.3303,eV,,,,,,,
Rb$_{2}$O$_{3}$,0.0,eV,,,,,,,
La$_{2}$NiO$_{4}$,1.5036000000000005,eV,,,,,,,
Ni$_{3}$(PO$_{4}$)$_{2}$,3.7408,eV,,,,,,,
KNiPO$_{4}$,3.3989000000000003,eV,,,,,,,
K$_{2}$NiH$_{8}$(CO$_{5}$)$_{2}$,4.149,eV,,,,,,,
NiH$_{8}$(ClO$_{2}$)$_{2}$,4.2089,eV,,,,,,,
CaNiBP$_{2}$H$_{3}$O$_{10}$,4.3565,eV,,,,,,,
Rb$_{2}$NiH$_{8}$(CO$_{5}$)$_{2}$,2.95,eV,,,,,,,
NiH$_{6}$(CO$_{3}$)$_{2}$,4.2196,eV,,,,,,,
Ba$_{3}$NiRu$_{2}$O$_{9}$,0.19279999999999964,eV,,,,,,,
SrMg$_{2}$,0.0,eV,,,,,,,
VAg(HO$_{2}$)$_{2}$,2.0853,eV,,,,,,,
UVO$_{5}$,0.31510000000000016,eV,,,,,,,
Mg$_{2}$VBiO$_{6}$,3.3647,eV,,,,,,,
VIn$_{2}$O$_{5}$,0.5096999999999996,eV,,,,,,,
V$_{2}$(SO$_{4}$)$_{3}$,1.6729999999999998,eV,,,,,,,
VH$_{20}$S$_{2}$(NO$_{7}$)$_{2}$,2.3098,eV,,,,,,,
V$_{2}$Pb$_{3}$O$_{8}$,3.0493,eV,,,,,,,
La$_{3}$W(ClO$_{2}$)$_{3}$,3.5892999999999997,eV,,,,,,,
Li$_{2}$PWO$_{4}$F,2.1905,eV,,,,,,,
H$_{8}$W$_{3}$Se(NO$_{6}$)$_{2}$,3.1063,eV,,,,,,,
NpAl$_{3}$,0.0,eV,,,,,,,
Bi$_{2}$WO$_{6}$,1.9139999999999997,eV,,,,,,,
Ba$_{2}$Ho$_{2}$Co$_{4}$O$_{11}$,0.09779999999999989,eV,,,,,,,
Be$_{2}$CoH$_{20}$N$_{2}$(O$_{3}$F$_{4}$)$_{2}$,3.3035,eV,,,,,,,
Rb$_{2}$CoH$_{12}$(SO$_{7}$)$_{2}$,3.3186,eV,,,,,,,
CoH$_{20}$Se$_{2}$(NO$_{7}$)$_{2}$,2.7533999999999996,eV,,,,,,,
Co$_{2}$PH$_{2}$CO$_{7}$,2.6355000000000004,eV,,,,,,,
BaInCo$_{4}$O$_{7}$,0.0,eV,,,,,,,
YbBaCo$_{4}$O$_{7}$,0.4131,eV,,,,,,,
Co$_{2}$P$_{2}$O$_{7}$,2.3728000000000002,eV,,,,,,,
ZrO$_{2}$,3.8738000000000006,eV,,,,,,,
Co$_{3}$(AsO$_{4}$)$_{2}$,1.7365,eV,,,,,,,
KCoH$_{6}$(N$_{3}$O$_{4}$)$_{2}$,2.7443,eV,,,,,,,
LiCr(GeO$_{3}$)$_{2}$,2.7518,eV,,,,,,,
Cr$_{3}$B$_{7}$BrO$_{13}$,2.4249,eV,,,,,,,
CaCrH$_{2}$O$_{5}$,2.9199,eV,,,,,,,
K$_{2}$FeH$_{2}$Cl$_{5}$O,2.2076,eV,,,,,,,
Fe$_{3}$BO$_{6}$,1.7876999999999996,eV,,,,,,,
FeNi$_{2}$BO$_{5}$,1.8488000000000002,eV,,,,,,,
Fe$_{2}$WO$_{6}$,1.8976000000000002,eV,,,,,,,
Ca$_{2}$Fe$_{2}$O$_{5}$,0.8683000000000001,eV,,,,,,,
K$_{2}$Li$_{2}$FeO$_{4}$,0.4025000000000001,eV,,,,,,,
Cs$_{2}$FeH$_{12}$(SO$_{7}$)$_{2}$,4.2649,eV,,,,,,,
FeH$_{10}$N$_{2}$OF$_{5}$,3.7499000000000002,eV,,,,,,,
CsFeP$_{2}$O$_{7}$,2.3933,eV,,,,,,,
Fe$_{4}$P$_{3}$(HO$_{5}$)$_{3}$,2.0256,eV,,,,,,,
Na$_{6}$Fe$_{2}$C$_{4}$SO$_{16}$,0.0,eV,,,,,,,
Sr$_{2}$Ge,0.37760000000000016,eV,,,,,,,
PrFeGe$_{2}$O$_{7}$,2.7016,eV,,,,,,,
RbFeBP$_{2}$HO$_{9}$,2.7276,eV,,,,,,,
LaFeGe$_{2}$O$_{7}$,2.645,eV,,,,,,,
Fe$_{7}$P$_{6}$(HO$_{6}$)$_{4}$,3.1224,eV,,,,,,,
Mn$_{3}$H$_{2}$Se$_{3}$O$_{10}$,2.7170999999999994,eV,,,,,,,
CaLaMn$_{2}$O$_{6}$,0.0,eV,,,,,,,
Mn$_{4}$Be$_{3}$Ge$_{3}$SeO$_{12}$,2.2722,eV,,,,,,,
CeMn$_{2}$(GeO$_{3}$)$_{4}$,0.03059999999999974,eV,,,,,,,
MnH$_{6}$(CO$_{3}$)$_{2}$,3.4977,eV,,,,,,,
Mn$_{3}$Rh,0.0,eV,,,,,,,
MnH$_{6}$(SO$_{4}$)$_{4}$,5.099500000000001,eV,,,,,,,
MnH$_{8}$SO$_{8}$,4.0579,eV,,,,,,,
Mn$_{4}$Be$_{3}$Ge$_{3}$SO$_{12}$,2.4229,eV,,,,,,,
Mn$_{8}$Cl$_{3}$O$_{10}$,0.31309999999999993,eV,,,,,,,
Na$_{2}$Mo$_{2}$O$_{7}$,3.2119999999999997,eV,,,,,,,
Tl$_{3}$(MoO$_{4}$)$_{2}$,0.0,eV,,,,,,,
NiH$_{20}$S$_{2}$(NO$_{7}$)$_{2}$,5.0511,eV,,,,,,,
Rb$_{2}$NiH$_{12}$(SeO$_{7}$)$_{2}$,3.6658999999999997,eV,,,,,,,
K$_{2}$NiH$_{12}$(SO$_{7}$)$_{2}$,4.8704,eV,,,,,,,
Ni$_{3}$H$_{2}$Se$_{3}$O$_{10}$,2.9775,eV,,,,,,,
NiTe$_{2}$,0.0,eV,,,,,,,
Zr$_{4}$Ni$_{2}$O,0.007500000000000284,eV,,,,,,,
Ni$_{3}$AgP$_{3}$(HO$_{6}$)$_{2}$,3.075,eV,,,,,,,
Rb$_{2}$NiH$_{12}$(SO$_{7}$)$_{2}$,4.8413,eV,,,,,,,
NiH$_{4}$SeO$_{5}$,3.8041,eV,,,,,,,
CaVNiP$_{2}$O$_{9}$,1.9741999999999997,eV,,,,,,,
NiH$_{14}$SO$_{11}$,5.0133,eV,,,,,,,
V$_{2}$O$_{3}$,0.0,eV,,,,,,,
V$_{5}$(PbO$_{6}$)$_{2}$,1.8211000000000004,eV,,,,,,,
Ba$_{5}$V$_{3}$ClO$_{12}$,4.0709,eV,,,,,,,
HoPt$_{2}$,0.0,eV,,,,,,,
V$_{6}$PbO$_{11}$,0.0,eV,,,,,,,
BaV$_{2}$CdO$_{7}$,3.0724,eV,,,,,,,
VO$_{2}$,0.17720000000000002,eV,,,,,,,
CaV$_{2}$P$_{2}$O$_{9}$,1.5166000000000004,eV,,,,,,,
V$_{2}$CdP$_{2}$O$_{9}$,1.7336,eV,,,,,,,
BaVP$_{2}$(H$_{2}$O$_{5}$)$_{2}$,2.5182,eV,,,,,,,
V$_{2}$Pb$_{2}$O$_{7}$,2.8712999999999997,eV,,,,,,,
SrV$_{2}$P$_{2}$O$_{9}$,1.4685999999999995,eV,,,,,,,
VBP$_{2}$H$_{5}$NO$_{9}$,2.1097,eV,,,,,,,
MgPb$_{2}$WO$_{6}$,2.8636,eV,,,,,,,
ZrV$_{2}$,0.0,eV,,,,,,,
NbB,0.0,eV,,,,,,,
Na$_{2}$W$_{2}$O$_{7}$,4.0512,eV,,,,,,,
Li$_{2}$Bi(PO$_{4}$)$_{2}$,0.16720000000000002,eV,,,,,,,
TiSi$_{2}$,0.0,eV,,,,,,,
Li$_{3}$Ti$_{2}$(PO$_{4}$)$_{3}$,0.11770000000000014,eV,,,,,,,
TbFe$_{3}$,0.0034000000000000696,eV,,,,,,,
LiTi$_{2}$(PO$_{4}$)$_{3}$,2.5563,eV,,,,,,,
Sr$_{5}$Sb$_{3}$,0.0,eV,,,,,,,
Li$_{3}$Cu$_{2}$P$_{5}$O$_{16}$,0.2537999999999998,eV,,,,,,,
YCo$_{3}$,0.0,eV,,,,,,,
LiBi(PO$_{3}$)$_{4}$,4.843100000000001,eV,,,,,,,
LiCuPO$_{4}$,0.3915000000000002,eV,,,,,,,
CuPO$_{4}$,0.05339999999999989,eV,,,,,,,
MgO$_{2}$,3.734,eV,,,,,,,
SbP$_{2}$O$_{7}$,0.11960000000000015,eV,,,,,,,
AlMo$_{3}$,0.0,eV,,,,,,,
Bi(PO$_{3}$)$_{4}$,0.0,eV,,,,,,,
LiSn(PO$_{3}$)$_{4}$,0.0,eV,,,,,,,
Sn(PO$_{3}$)$_{4}$,3.4585000000000004,eV,,,,,,,
Ti$_{3}$O,0.0,eV,,,,,,,
Si$_{2}$Mo,0.0,eV,,,,,,,
Li$_{3}$Bi$_{2}$(PO$_{4}$)$_{3}$,3.7495,eV,,,,,,,
AlNi$_{3}$,0.0,eV,,,,,,,
Li$_{3}$Ti$_{2}$(PO$_{4}$)$_{3}$,0.0625,eV,,,,,,,
BiP$_{2}$O$_{7}$,0.0,eV,,,,,,,
Li$_{2}$CuP$_{2}$O$_{7}$,0.0,eV,,,,,,,
Sb$_{2}$P$_{5}$O$_{16}$,0.0757000000000001,eV,,,,,,,
SbP$_{2}$O$_{7}$,0.0,eV,,,,,,,
LiBi(PO$_{3}$)$_{4}$,4.1457,eV,,,,,,,
LiCu(PO$_{3}$)$_{2}$,2.2293000000000003,eV,,,,,,,
Ta$_{5}$Sb$_{4}$,0.0,eV,,,,,,,
CrB,0.0,eV,,,,,,,
BaTe,0.7819000000000003,eV,,,,,,,
MgTe$_{2}$,1.1161999999999992,eV,,,,,,,
CaO,3.6344000000000003,eV,,,,,,,
BaPd$_{5}$,0.0,eV,,,,,,,
UGe$_{3}$,0.0,eV,,,,,,,
Bi$_{2}$(PO$_{4}$)$_{3}$,0.0048000000000000265,eV,,,,,,,
Ba$_{3}$Al$_{5}$,0.0,eV,,,,,,,
Tb$_{5}$Ge$_{3}$,0,eV,,,,,,,
Bi$_{2}$(PO$_{4}$)$_{3}$,0.0,eV,,,,,,,
BaGe$_{2}$,0.0,eV,,,,,,,
LiTi(PO$_{3}$)$_{4}$,0.28690000000000015,eV,,,,,,,
Ti(PO$_{3}$)$_{4}$,2.7702999999999998,eV,,,,,,,
GeTe,0.3630999999999993,eV,,,,,,,
LiBiP$_{2}$O$_{7}$,3.9643999999999995,eV,,,,,,,
LaCu$_{5}$,0.0,eV,,,,,,,
LaZn,0.08779999999999966,eV,,,,,,,
Sb(PO$_{3}$)$_{4}$,0.0,eV,,,,,,,
LiSb(PO$_{3}$)$_{4}$,4.462999999999999,eV,,,,,,,
NpO$_{2}$,0.0,eV,,,,,,,
B$_{2}$Pd$_{5}$,0.0,eV,,,,,,,
Sn(PO$_{3}$)$_{3}$,0.0,eV,,,,,,,
LiBi$_{3}$(PO$_{5}$)$_{2}$,3.3956999999999997,eV,,,,,,,
DyAg$_{2}$,0.0,eV,,,,,,,
FeSb,0.0,eV,,,,,,,
Na$_{3}$B$_{20}$,0.0,eV,,,,,,,
LiBiP$_{2}$O$_{7}$,4.150399999999999,eV,,,,,,,
ErAg,0.0,eV,,,,,,,
Pa$_{3}$As$_{4}$,0.0,eV,,,,,,,
Li$_{4}$Cu(PO$_{4}$)$_{2}$,0.03980000000000006,eV,,,,,,,
Li$_{3}$Cu(PO$_{4}$)$_{2}$,0.0,eV,,,,,,,
V$_{4}$As$_{3}$,2.0000000000042206E-4,eV,,,,,,,
AlSb,1.2272999999999996,eV,,,,,,,
Li$_{3}$Bi$_{2}$P$_{5}$O$_{18}$,0.18110000000000004,eV,,,,,,,
Li$_{5}$Cu(PO$_{4}$)$_{2}$,1.7933,eV,,,,,,,
Li$_{4}$Cu(PO$_{4}$)$_{2}$,0.0,eV,,,,,,,
U$_{2}$C$_{3}$,0.0,eV,,,,,,,
Zr$_{3}$Rh$_{5}$,0.0,eV,,,,,,,
Li$_{2}$Cu(PO$_{3}$)$_{4}$,0.8250000000000002,eV,,,,,,,
LiCu(PO$_{3}$)$_{4}$,0.6715,eV,,,,,,,
Li$_{2}$Cu(PO$_{3}$)$_{4}$,0.25249999999999995,eV,,,,,,,
Li$_{2}$Sn(PO$_{3}$)$_{4}$,4.059200000000001,eV,,,,,,,
DyCo$_{2}$,0.0,eV,,,,,,,
Li$_{3}$Sb$_{5}$(PO$_{4}$)$_{6}$,3.9629000000000003,eV,,,,,,,
LiBi$_{2}$(PO$_{4}$)$_{3}$,0.27790000000000004,eV,,,,,,,
Bi$_{2}$(PO$_{4}$)$_{3}$,0.0040999999999999925,eV,,,,,,,
Ce$_{7}$O$_{12}$,0.0,eV,,,,,,,
LiSnPO$_{4}$,3.8438000000000003,eV,,,,,,,
SrC$_{2}$,1.6718,eV,,,,,,,
LiBi$_{2}$(PO$_{4}$)$_{3}$,0.24260000000000015,eV,,,,,,,
Li$_{6}$Cu$_{9}$(PO$_{4}$)$_{8}$,0.2721,eV,,,,,,,
Cu$_{9}$(PO$_{4}$)$_{8}$,0.0,eV,,,,,,,
Ba$_{4}$Al$_{5}$,0.0,eV,,,,,,,
Li$_{5}$Cu(PO$_{4}$)$_{2}$,1.9666000000000001,eV,,,,,,,
TlF$_{3}$,1.2591,eV,,,,,,,
Li$_{6}$Bi$_{3}$P$_{8}$O$_{29}$,0.0,eV,,,,,,,
GeO$_{2}$,0.7843,eV,,,,,,,
LiSbP$_{2}$O$_{7}$,3.9593,eV,,,,,,,
GdMg,0.0,eV,,,,,,,
YSe,0.0,eV,,,,,,,
Li$_{5}$Bi$_{2}$P$_{5}$O$_{18}$,0.0,eV,,,,,,,
LiNb$_{2}$(PO$_{4}$)$_{3}$,0.0,eV,,,,,,,
Na$_{3}$N,0.0,eV,,,,,,,
TbAs,0.0,eV,,,,,,,
Li$_{2}$SnP$_{2}$O$_{7}$,4.118600000000001,eV,,,,,,,
LiTi(PO$_{3}$)$_{4}$,0.16710000000000047,eV,,,,,,,
CdAg,0.0,eV,,,,,,,
Ti$_{3}$Cu$_{4}$,0.0,eV,,,,,,,
CoSb,0.0,eV,,,,,,,
Sn$_{4}$(PO$_{4}$)$_{3}$,0.0,eV,,,,,,,
YbNi$_{5}$,0.0,eV,,,,,,,
Mg$_{3}$Sb$_{2}$,0.21720000000000006,eV,,,,,,,
Al$_{2}$Au,0.0,eV,,,,,,,
LiCuPO$_{4}$,0.15979999999999994,eV,,,,,,,
Zr$_{5}$Sb$_{3}$,0.0,eV,,,,,,,
TaIr$_{3}$,0.0,eV,,,,,,,
P$_{4}$S$_{7}$,2.7617,eV,,,,,,,
PrF$_{3}$,7.5968,eV,,,,,,,
LiCuPO$_{4}$,0.0939000000000001,eV,,,,,,,
Y$_{2}$O$_{3}$,4.0531,eV,,,,,,,
BN,5.211899999999999,eV,,,,,,,
LiCu$_{2}$P$_{3}$O$_{10}$,0.03180000000000005,eV,,,,,,,
Cu$_{2}$P$_{3}$O$_{10}$,0.0,eV,,,,,,,
Al$_{2}$S$_{3}$,2.817,eV,,,,,,,
LiSb(PO$_{3}$)$_{4}$,4.2104,eV,,,,,,,
LiNb(PO$_{3}$)$_{4}$,0.06579999999999986,eV,,,,,,,
Nb(PO$_{3}$)$_{4}$,0.1694,eV,,,,,,,
Nd$_{3}$S$_{4}$,0.0,eV,,,,,,,
TiO$_{2}$,1.7809999999999997,eV,,,,,,,
AlFe,0.0,eV,,,,,,,
Li$_{5}$Sb$_{2}$P$_{5}$O$_{18}$,3.5081,eV,,,,,,,
Li$_{3}$Sb$_{2}$P$_{5}$O$_{18}$,0.0,eV,,,,,,,
LiN$_{3}$,3.6364,eV,,,,,,,
Zr$_{2}$Pd,0.0,eV,,,,,,,
LiTiP$_{2}$O$_{7}$,0.16549999999999976,eV,,,,,,,
Nb$_{3}$Pt,0.0,eV,,,,,,,
TiP$_{2}$O$_{7}$,2.7319,eV,,,,,,,
Li$_{2}$SnP$_{2}$O$_{7}$,4.0479,eV,,,,,,,
PrRu$_{2}$,0.0,eV,,,,,,,
LiSnP$_{2}$O$_{7}$,0.0,eV,,,,,,,
LiSb(PO$_{3}$)$_{5}$,0.16569999999999996,eV,,,,,,,
CsAu,1.0239,eV,,,,,,,
LiSb(PO$_{3}$)$_{4}$,4.2484,eV,,,,,,,
Mn$_{3}$As,0.0,eV,,,,,,,
Li$_{2}$CuPO$_{4}$,2.008,eV,,,,,,,
Te$_{2}$Ru,0.2829999999999995,eV,,,,,,,
Nb$_{3}$Ga,0.0,eV,,,,,,,
Li$_{3}$Sn$_{2}$(PO$_{4}$)$_{3}$,2.4793,eV,,,,,,,
LiSn$_{2}$(PO$_{4}$)$_{3}$,3.3131000000000004,eV,,,,,,,
K$_{2}$O$_{2}$,2.3446999999999996,eV,,,,,,,
Li$_{2}$Nb(PO$_{4}$)$_{2}$,0.06540000000000035,eV,,,,,,,
LiSnPO$_{4}$,2.5567,eV,,,,,,,
YbPb,0.0,eV,,,,,,,
YPt$_{2}$,0.0,eV,,,,,,,
LiCu$_{4}$(PO$_{4}$)$_{3}$,0.2643,eV,,,,,,,
Cu$_{4}$(PO$_{4}$)$_{3}$,0.0,eV,,,,,,,
LiSbP$_{2}$O$_{7}$,3.3047000000000004,eV,,,,,,,
MgNi$_{2}$,0.0,eV,,,,,,,
TaBe$_{2}$,0.0,eV,,,,,,,
LiNb(PO$_{3}$)$_{4}$,0.05370000000000008,eV,,,,,,,
ScPd$_{3}$,0.0,eV,,,,,,,
VPt,0.0,eV,,,,,,,
LiCu$_{5}$P$_{3}$O$_{13}$,0.0,eV,,,,,,,
Cu$_{5}$P$_{3}$O$_{13}$,0.0,eV,,,,,,,
LaB$_{6}$,0.0,eV,,,,,,,
Ho$_{5}$Sb$_{3}$,0.0,eV,,,,,,,
Sb$_{2}$Rh,0.004000000000000448,eV,,,,,,,
Li$_{2}$Cu$_{3}$(P$_{2}$O$_{7}$)$_{2}$,0.09529999999999994,eV,,,,,,,
Li$_{3}$Bi$_{5}$(PO$_{4}$)$_{6}$,4.0023,eV,,,,,,,
TbGa$_{2}$,0.0,eV,,,,,,,
HgPd,0.0,eV,,,,,,,
Li$_{2}$CuPO$_{4}$,1.5503,eV,,,,,,,
Li$_{2}$Sn(PO$_{3}$)$_{4}$,3.9056,eV,,,,,,,
Ca$_{2}$N,0.017100000000000115,eV,,,,,,,
Li$_{2}$Sn$_{3}$(P$_{2}$O$_{7}$)$_{2}$,2.7556,eV,,,,,,,
Li$_{2}$CuPO$_{4}$,1.4313000000000002,eV,,,,,,,
HoGa$_{3}$,0.0,eV,,,,,,,
Li$_{3}$Ti$_{2}$(PO$_{4}$)$_{3}$,0.0,eV,,,,,,,
LiTi$_{2}$(PO$_{4}$)$_{3}$,0.0,eV,,,,,,,
ThFe$_{5}$,0.0,eV,,,,,,,
LiSn(PO$_{3}$)$_{3}$,3.1143,eV,,,,,,,
TmC$_{2}$,0.0,eV,,,,,,,
CdSe,0.5101,eV,,,,,,,
SnSe,0.1189,eV,,,,,,,
LaAl$_{2}$,0.0,eV,,,,,,,
Sn$_{2}$P$_{3}$O$_{10}$,0.0,eV,,,,,,,
LiSn$_{2}$(PO$_{3}$)$_{5}$,4.116300000000001,eV,,,,,,,
Sb$_{2}$Os,0.34339999999999904,eV,,,,,,,
Sn$_{2}$(PO$_{3}$)$_{5}$,0.0,eV,,,,,,,
MgAg,0.0,eV,,,,,,,
SrO$_{2}$,2.8495000000000004,eV,,,,,,,
YCu$_{2}$,0.0,eV,,,,,,,
LiSnPO$_{4}$,3.4071000000000002,eV,,,,,,,
SnPO$_{4}$,2.4403000000000006,eV,,,,,,,
Li$_{2}$SnP$_{2}$O$_{7}$,3.932,eV,,,,,,,
Li$_{2}$CuPO$_{4}$,1.4867000000000004,eV,,,,,,,
VPt$_{3}$,0.0,eV,,,,,,,
SnF$_{4}$,3.0953,eV,,,,,,,
Li$_{2}$CuPO$_{4}$,1.4033999999999995,eV,,,,,,,
Li$_{3}$Bi$_{2}$(PO$_{4}$)$_{3}$,4.0424,eV,,,,,,,
USb$_{2}$,0.0,eV,,,,,,,
LaNi$_{2}$,0.05010000000000048,eV,,,,,,,
Li$_{3}$Sn$_{2}$(PO$_{4}$)$_{3}$,2.6109999999999998,eV,,,,,,,
LiSn$_{2}$(PO$_{4}$)$_{3}$,3.394,eV,,,,,,,
Li$_{3}$Sb$_{3}$(PO$_{4}$)$_{4}$,3.0469,eV,,,,,,,
LiSn$_{2}$(PO$_{4}$)$_{3}$,3.5637,eV,,,,,,,
ErSeF,2.112,eV,,,,,,,
Cu$_{4}$(BiS$_{2}$)$_{5}$,0.0,eV,,,,,,,
Na$_{6}$MnCl$_{8}$,2.5589000000000004,eV,,,,,,,
Na$_{2}$Mn$_{3}$Cl$_{8}$,1.9223,eV,,,,,,,
Te$_{4}$O$_{9}$,2.2225,eV,,,,,,,
Y$_{7}$(O$_{2}$F$_{3}$)$_{3}$,2.7161000000000004,eV,,,,,,,
ErIr,0.0,eV,,,,,,,
Zr$_{2}$P$_{2}$O$_{9}$,4.1075,eV,,,,,,,
BiPS$_{4}$,1.4838999999999998,eV,,,,,,,
Bi(PO$_{3}$)$_{3}$,4.5202,eV,,,,,,,
K$_{2}$PdBr$_{4}$,1.2048999999999999,eV,,,,,,,
Pr$_{2}$Au,0.0,eV,,,,,,,
K$_{2}$Sb$_{4}$O$_{11}$,1.8457,eV,,,,,,,
P$_{2}$H$_{8}$O$_{9}$,5.556299999999999,eV,,,,,,,
TlPO$_{3}$,3.4595,eV,,,,,,,
Ca$_{5}$Bi$_{3}$,0.0,eV,,,,,,,
Cs$_{2}$Sb$_{4}$S$_{7}$,1.6153000000000004,eV,,,,,,,
Rb$_{3}$BiBr$_{6}$,3.3,eV,,,,,,,
BeP$_{2}$,0.8314000000000004,eV,,,,,,,
CoAs$_{2}$,0.17389999999999972,eV,,,,,,,
UBr$_{4}$,0.0,eV,,,,,,,
WCl$_{5}$,0.0,eV,,,,,,,
ZnI$_{2}$,2.9076000000000004,eV,,,,,,,
Sc$_{3}$Co,0.0,eV,,,,,,,
Ga(Ag$_{3}$Se$_{2}$)$_{3}$,0.0,eV,,,,,,,
FeP$_{4}$,1.0765000000000002,eV,,,,,,,
Hf$_{8}$Ni$_{21}$,0.0,eV,,,,,,,
Hf$_{3}$Ni$_{7}$,0.0,eV,,,,,,,
Sn$_{2}$IF$_{3}$,2.4355999999999995,eV,,,,,,,
KTa$_{5}$O$_{13}$,3.1482,eV,,,,,,,
Zr$_{2}$Ni$_{7}$,0.0,eV,,,,,,,
Hg$_{2}$P$_{2}$S$_{7}$,1.7973,eV,,,,,,,
Cs$_{3}$In$_{2}$Cl$_{9}$,3.4583999999999997,eV,,,,,,,
P$_{4}$Ru,1.2576999999999998,eV,,,,,,,
InOF,1.7761000000000005,eV,,,,,,,
NaMnCl$_{3}$,2.2823,eV,,,,,,,
HgPS$_{3}$,1.7549,eV,,,,,,,
CsCrBr$_{3}$,0,eV,,,,,,,
C$_{2}$N,3.1235,eV,,,,,,,
NdSBr,2.6374999999999993,eV,,,,,,,
KAuCl$_{4}$,1.4392,eV,,,,,,,
GdBr$_{3}$,2.1414,eV,,,,,,,
B$_{10}$(Pb$_{2}$O$_{7}$)$_{3}$,3.259,eV,,,,,,,
KTh$_{6}$F$_{25}$,6.0883,eV,,,,,,,
Be$_{2}$TlF$_{5}$,4.9163,eV,,,,,,,
Si$_{3}$Cl$_{8}$,4.7516,eV,,,,,,,
DyB$_{4}$,0.0,eV,,,,,,,
Zr$_{9}$S$_{2}$,0.0,eV,,,,,,,
CsBe$_{2}$F$_{5}$,7.180899999999999,eV,,,,,,,
RbIO$_{3}$,3.1835000000000004,eV,,,,,,,
SnI$_{2}$,1.7061000000000002,eV,,,,,,,
In$_{4}$Bi$_{2}$S$_{9}$,1.6314000000000002,eV,,,,,,,
Na$_{4}$As$_{2}$O$_{7}$,3.1898,eV,,,,,,,
Cd(NO$_{3}$)$_{2}$,3.4581,eV,,,,,,,
AuSeBr,0.6295,eV,,,,,,,
NdPt$_{2}$,0.0,eV,,,,,,,
B$_{13}$H$_{19}$,2.767,eV,,,,,,,
B$_{9}$H$_{8}$S,4.156,eV,,,,,,,
TlCl$_{2}$,2.2405,eV,,,,,,,
K$_{2}$MgCl$_{4}$,4.7652,eV,,,,,,,
RbMgCl$_{3}$,4.7503,eV,,,,,,,
KTlF$_{4}$,2.3067,eV,,,,,,,
RbTlF$_{4}$,2.7647,eV,,,,,,,
KSb$_{4}$F$_{13}$,4.6612,eV,,,,,,,
Sb$_{2}$IF$_{15}$,3.8902,eV,,,,,,,
AuBr$_{3}$,0.7908000000000001,eV,,,,,,,
CsSnBr$_{3}$,1.6021999999999998,eV,,,,,,,
CrI$_{2}$,0.01529999999999987,eV,,,,,,,
Ge(BrF$_{5}$)$_{2}$,2.9048000000000003,eV,,,,,,,
Mg(SbO$_{2}$)$_{2}$,2.5511,eV,,,,,,,
Tl$_{5}$SbO$_{5}$,1.4702000000000002,eV,,,,,,,
Ca$_{2}$Hf$_{7}$O$_{16}$,4.3157000000000005,eV,,,,,,,
MgCu$_{2}$O$_{3}$,0.0,eV,,,,,,,
LiAg$_{3}$O$_{2}$,0.7277999999999998,eV,,,,,,,
Tl$_{6}$Si$_{2}$O$_{7}$,1.5876000000000001,eV,,,,,,,
Sb$_{6}$S$_{2}$O$_{15}$,3.2471999999999994,eV,,,,,,,
As$_{2}$SO$_{6}$,4.407900000000001,eV,,,,,,,
Li$_{2}$TeO$_{3}$,3.6614,eV,,,,,,,
SrAl,0.0,eV,,,,,,,
Cu(IO$_{3}$)$_{2}$,0.32699999999999996,eV,,,,,,,
H$_{5}$N$_{2}$F,5.4604,eV,,,,,,,
Sb$_{2}$I$_{2}$F$_{11}$,0.0,eV,,,,,,,
SbXeF$_{9}$,2.1416,eV,,,,,,,
TbSb,0.0,eV,,,,,,,
UCl$_{5}$,0.33089999999999997,eV,,,,,,,
K$_{2}$SbCl$_{5}$,3.2507,eV,,,,,,,
K$_{2}$PtBr$_{4}$,1.4677000000000002,eV,,,,,,,
BSBr,3.6628000000000003,eV,,,,,,,
LuSBr,2.9978,eV,,,,,,,
Na$_{3}$NbO$_{4}$,3.7688999999999995,eV,,,,,,,
CuCO$_{3}$,0.0,eV,,,,,,,
TbIr$_{2}$,0.0,eV,,,,,,,
CsTcO$_{4}$,3.4143999999999997,eV,,,,,,,
Bi$_{2}$TeO$_{6}$,1.4566999999999997,eV,,,,,,,
TlCdI$_{3}$,2.1764,eV,,,,,,,
Au$_{2}$O$_{3}$,0.8199999999999998,eV,,,,,,,
Ba(TeO$_{3}$)$_{2}$,1.7482000000000002,eV,,,,,,,
Ga$_{2}$TeS$_{2}$,1.1978,eV,,,,,,,
Sb$_{2}$(S$_{2}$O$_{7}$)$_{3}$,4.1996,eV,,,,,,,
PBr$_{3}$,3.3243,eV,,,,,,,
P$_{3}$Au$_{2}$,0.0,eV,,,,,,,
CsCrI$_{3}$,0.0,eV,,,,,,,
SrCu$_{5}$,0.019099999999999895,eV,,,,,,,
CsAlCl$_{4}$,5.3868,eV,,,,,,,
Ba$_{7}$(BIr)$_{12}$,0.0,eV,,,,,,,
Ca$_{9}$Zn$_{4}$Bi$_{9}$,0.0,eV,,,,,,,
Rb$_{2}$MnBr$_{4}$,1.1516,eV,,,,,,,
NaTiF$_{4}$,0.20199999999999996,eV,,,,,,,
AuClO,0.9779999999999999,eV,,,,,,,
ReP$_{4}$,0.7559000000000005,eV,,,,,,,
Tl$_{8}$Ge$_{5}$O$_{14}$,2.2104,eV,,,,,,,
Ca$_{3}$PI$_{3}$,2.1548,eV,,,,,,,
Ti$_{9}$O$_{17}$,0.0,eV,,,,,,,
AsCF$_{3}$,3.3193,eV,,,,,,,
Li$_{3}$BO$_{3}$,5.1473,eV,,,,,,,
Si$_{12}$Ni$_{31}$,0,eV,,,,,,,
PCl$_{3}$O,4.4528,eV,,,,,,,
P(HO)$_{4}$,5.7898000000000005,eV,,,,,,,
MnIr,0.02149999999999963,eV,,,,,,,
Na$_{2}$MnCl$_{4}$,2.0864000000000003,eV,,,,,,,
LiH$_{3}$O$_{2}$,4.741,eV,,,,,,,
TlPb$_{2}$Cl$_{5}$,3.4637,eV,,,,,,,
Ba(Ag$_{3}$O$_{2}$)$_{2}$,1.0629999999999997,eV,,,,,,,
RuXeF$_{7}$,0.9089,eV,,,,,,,
Sn$_{7}$Os$_{3}$,0.0,eV,,,,,,,
Sb$_{2}$XeF$_{14}$,0.0,eV,,,,,,,
PaCl$_{4}$,0.01580000000000048,eV,,,,,,,
Hg$_{3}$As$_{2}$F$_{12}$,2.6234,eV,,,,,,,
Tl$_{4}$HgBr$_{6}$,1.8287000000000002,eV,,,,,,,
Ca$_{3}$AsBr$_{3}$,1.6656999999999997,eV,,,,,,,
Mg$_{14}$Ge$_{5}$O$_{24}$,3.4454999999999996,eV,,,,,,,
ZrTi$_{2}$O,0.0,eV,,,,,,,
ReCl$_{4}$O,0.647,eV,,,,,,,
Ca$_{11}$Bi$_{10}$,0.0,eV,,,,,,,
RbAuBr$_{3}$,0.7293,eV,,,,,,,
Rb$_{3}$Au$_{3}$Cl$_{8}$,0.8124,eV,,,,,,,
TmCl$_{2}$,0.0,eV,,,,,,,
NaAg$_{3}$O$_{2}$,0.6596,eV,,,,,,,
K$_{2}$MnCl$_{6}$,1.0996000000000001,eV,,,,,,,
Na$_{2}$ZrF$_{6}$,6.251799999999999,eV,,,,,,,
SbBrF$_{8}$,2.6902,eV,,,,,,,
TiGa$_{3}$,0.0,eV,,,,,,,
Na$_{4}$Sn$_{3}$F$_{10}$,3.5349,eV,,,,,,,
LaCO,3.0016000000000007,eV,,,,,,,
Nb$_{2}$SeF$_{14}$,4.8422,eV,,,,,,,
NbSeF$_{9}$,5.045,eV,,,,,,,
SbClF$_{8}$,3.1317000000000004,eV,,,,,,,
CaTiF$_{6}$,4.609,eV,,,,,,,
Rb$_{5}$Zr$_{4}$F$_{21}$,5.6715,eV,,,,,,,
SbAsF$_{8}$,3.8632,eV,,,,,,,
Sb$_{3}$(BrF$_{8}$)$_{2}$,0.05600000000000005,eV,,,,,,,
Sc$_{2}$Co$_{3}$Si,0.0,eV,,,,,,,
PRh$_{2}$,0.0,eV,,,,,,,
Na$_{3}$(CuS)$_{4}$,0.0,eV,,,,,,,
Nb$_{2}$Te$_{3}$O$_{11}$,2.5655,eV,,,,,,,
Al$_{8}$Mo$_{3}$,0.0,eV,,,,,,,
La$_{3}$(OsO$_{5}$)$_{2}$,0.0,eV,,,,,,,
K$_{3}$GeTe$_{3}$,1.0607000000000002,eV,,,,,,,
Cs$_{3}$MnBr$_{5}$,2.7134,eV,,,,,,,
Tl$_{3}$CoCl$_{5}$,0.6109999999999998,eV,,,,,,,
Tl$_{3}$FeCl$_{5}$,0.0,eV,,,,,,,
NaAlSi,0.0,eV,,,,,,,
CsCuBr$_{3}$,0.37320000000000003,eV,,,,,,,
Xe(OF)$_{2}$,2.3643,eV,,,,,,,
Sb$_{2}$(SO$_{4}$)$_{3}$,4.016299999999999,eV,,,,,,,
ReCl$_{4}$,0.0,eV,,,,,,,
BH$_{4}$N,5.9404,eV,,,,,,,
Ge$_{5}$F$_{12}$,4.3696,eV,,,,,,,
Re$_{4}$Cl$_{8}$O$_{9}$,1.0174,eV,,,,,,,
Be(BH$_{4}$)$_{2}$,6.1859,eV,,,,,,,
Na$_{3}$BiO$_{4}$,0.9645999999999999,eV,,,,,,,
Al$_{2}$Hg$_{3}$Cl$_{8}$,2.4917,eV,,,,,,,
BSF$_{7}$,4.9968,eV,,,,,,,
PaO,0.0,eV,,,,,,,
U(BH$_{4}$)$_{4}$,0.0,eV,,,,,,,
SbN$_{3}$Cl$_{4}$,1.8875,eV,,,,,,,
Sr(Ag$_{3}$O$_{2}$)$_{2}$,0.8503000000000003,eV,,,,,,,
SbCl$_{2}$F$_{3}$,1.8671,eV,,,,,,,
Cs$_{3}$HgCl$_{5}$,3.0401,eV,,,,,,,
Pb$_{2}$OF$_{2}$,2.8476,eV,,,,,,,
AsO$_{2}$,3.3566000000000003,eV,,,,,,,
Se$_{2}$O$_{5}$,2.885,eV,,,,,,,
CsScCl$_{3}$,0.0,eV,,,,,,,
ReBiO$_{4}$,0.0,eV,,,,,,,
Nb(SeCl)$_{2}$,0.984,eV,,,,,,,
Nb(SCl)$_{2}$,1.5101999999999998,eV,,,,,,,