formula,Property Band Gap,Property Band Gap units,Property Band gap,Property Band gap units,Temperature (Property Band gap),Temperature (Property Band gap) units,Property Color,Temperature (Property Color),Temperature (Property Color) units
Pr$_{5}$AgSe$_{8}$,1.4536999999999995,eV,,,,,,,
Al$_{5}$CuS$_{8}$,1.5324,eV,,,,,,,
Ca$_{4}$Sb$_{2}$S,1.0818999999999992,eV,,,,,,,
Na$_{3}$AgO$_{2}$,1.1398,eV,,,,,,,
Sm$_{2}$CdS$_{4}$,1.7573999999999996,eV,,,,,,,
K$_{3}$VS$_{4}$,1.5829999999999997,eV,,,,,,,
Ag$_{2}$O,0.0,eV,,,,,,,
Au(OF$_{3}$)$_{2}$,0.12559999999999993,eV,,,,,,,
CuCN,2.5202,eV,,,,,,,
Ca$_{2}$P$_{2}$O$_{7}$,5.4165,eV,,,,,,,
ZnCrF$_{6}$,1.5468000000000002,eV,,,,,,,
CrAgSe$_{2}$,0.3380000000000001,eV,,,,,,,
Ag$_{3}$(AsO$_{4}$)$_{2}$,0.0,eV,,,,,,,
Al(CN)$_{3}$,5.0623000000000005,eV,,,,,,,
Ge$_{2}$Sb$_{2}$Te$_{5}$,0.0,eV,,,,,,,
RbCeS$_{2}$,0.059499999999999886,eV,,,,,,,
MgAl$_{2}$O$_{4}$,5.1095,eV,,,,,,,
Hg$_{3}$TeO$_{6}$,1.1609,eV,,,,,,,
LiSmSe$_{2}$,1.5106,eV,,,,,,,
NbGaNi$_{2}$,0.0,eV,,,,,,,
Bi$_{2}$WO$_{8}$,0.22949999999999982,eV,,,,,,,
Li$_{2}$SnO$_{3}$,3.125,eV,,,,,,,
Na$_{2}$CeO$_{3}$,2.1042,eV,,,,,,,
CeNiGe$_{2}$,0.0,eV,,,,,,,
Li$_{3}$TaO$_{4}$,1.5777,eV,,,,,,,
Ca(LaS$_{2}$)$_{2}$,2.1455,eV,,,,,,,
Cr$_{2}$FeO$_{4}$,0.4327000000000001,eV,,,,,,,
CeMgSi$_{2}$,0.0,eV,,,,,,,
Tb(Al$_{2}$Fe)$_{4}$,0.0,eV,,,,,,,
MgSiO$_{3}$,5.415499999999999,eV,,,,,,,
Ti(FeO$_{2}$)$_{4}$,1.1061999999999999,eV,,,,,,,
Zn$_{2}$SnO$_{4}$,0.8250999999999995,eV,,,,,,,
Nd$_{5}$Si$_{4}$,0.0,eV,,,,,,,
TbAgTe$_{2}$,0.9058000000000002,eV,,,,,,,
Dy$_{5}$AgS$_{8}$,1.7318000000000007,eV,,,,,,,
Li$_{2}$Si$_{2}$O$_{5}$,5.24,eV,,,,,,,
Zr$_{7}$(NO$_{2}$)$_{4}$,2.6081999999999996,eV,,,,,,,
KTeAu,0.0,eV,,,,,,,
LiMn$_{4}$O$_{8}$,0.028999999999999915,eV,,,,,,,
Zn$_{2}$GeSe$_{4}$,1.3873,eV,,,,,,,
LaSiIr,0.0,eV,,,,,,,
LaOF,4.7503,eV,,,,,,,
Tm$_{2}$SO$_{2}$,3.0985,eV,,,,,,,
Eu(CuGe)$_{2}$,0.0,eV,,,,,,,
Na$_{3}$UF$_{7}$,0.0,eV,,,,,,,
LiErS$_{2}$,1.9886999999999997,eV,,,,,,,
Fe$_{2}$NiO$_{4}$,1.3615999999999997,eV,,,,,,,
Nd$_{2}$Co$_{17}$,0.0,eV,,,,,,,
Lu$_{10}$Ti$_{6}$O$_{27}$,2.4953999999999996,eV,,,,,,,
Ba$_{5}$Nb$_{4}$O$_{15}$,2.5991,eV,,,,,,,
Pr$_{2}$CdSe$_{4}$,0.9727000000000001,eV,,,,,,,
BaSc$_{2}$O$_{4}$,3.8718,eV,,,,,,,
Zn$_{2}$PtO$_{4}$,0.6309,eV,,,,,,,
La$_{2}$USe$_{4}$,0.0,eV,,,,,,,
HgPbF$_{6}$,1.3237,eV,,,,,,,
Ce(SiRu)$_{2}$,0.0,eV,,,,,,,
Sr(InTe$_{2}$)$_{2}$,1.0210000000000004,eV,,,,,,,
NaVSe$_{2}$,0.0,eV,,,,,,,
NaPF$_{3}$,1.0057,eV,,,,,,,
Be(CN)$_{2}$,5.9058,eV,,,,,,,
Nd(Sb$_{3}$Os)$_{4}$,0.0,eV,,,,,,,
Co$_{5}$RuO$_{8}$,0.0,eV,,,,,,,
Li$_{2}$HN,2.4721,eV,,,,,,,
SmPd$_{3}$,0.0,eV,,,,,,,
NdPPd,0.0,eV,,,,,,,
Mg(GaO$_{2}$)$_{2}$,2.4173000000000004,eV,,,,,,,
La$_{5}$TlS$_{8}$,1.3953999999999995,eV,,,,,,,
LiDySe$_{2}$,1.5621999999999998,eV,,,,,,,
Ta$_{4}$SnO$_{12}$,0.0,eV,,,,,,,
BaUO$_{3}$,0.0026999999999999247,eV,,,,,,,
Gd$_{2}$Zr$_{2}$O$_{7}$,2.1069,eV,,,,,,,
ZrUN$_{2}$,0.0,eV,,,,,,,
MnAlCu$_{2}$,0.0,eV,,,,,,,
Sr(YS$_{2}$)$_{2}$,2.1883,eV,,,,,,,
Ca$_{3}$(BO$_{3}$)$_{2}$,4.8224,eV,,,,,,,
Zn(CN)$_{2}$,5.7795,eV,,,,,,,
Li$_{2}$NiF$_{4}$,5.0816,eV,,,,,,,
HfGaCo$_{2}$,0.0,eV,,,,,,,
Sr$_{4}$Lu$_{3}$F$_{17}$,6.6819,eV,,,,,,,
Mg(InTe$_{2}$)$_{2}$,0.6792000000000002,eV,,,,,,,
Y$_{2}$CdS$_{4}$,1.1109000000000002,eV,,,,,,,
Ca(DyS$_{2}$)$_{2}$,2.1664000000000003,eV,,,,,,,
UGeSe,0.0,eV,,,,,,,
BiPbF$_{5}$,4.297000000000001,eV,,,,,,,
Hf$_{2}$Bi$_{2}$O$_{7}$,2.7787,eV,,,,,,,
HgTe,0.47619999999999996,eV,,,,,,,
U$_{12}$Ir$_{4}$Se$_{31}$,0.001300000000000523,eV,,,,,,,
Ta$_{4}$MnS$_{8}$,0.0,eV,,,,,,,
Mg(BC)$_{2}$,1.0168999999999997,eV,,,,,,,
Li$_{4}$SiO$_{4}$,5.0854,eV,,,,,,,
U$_{2}$AsN$_{2}$,0.0,eV,,,,,,,
Ag(AuS)$_{2}$,0.0,eV,,,,,,,
NdPO$_{4}$,5.675000000000001,eV,,,,,,,
Li$_{2}$CuGe,0.0,eV,,,,,,,
TiNbN$_{2}$,0.0,eV,,,,,,,
Sc(SiNi)$_{2}$,0,eV,,,,,,,
Ca(NdS$_{2}$)$_{2}$,2.0612999999999997,eV,,,,,,,
K$_{4}$C$_{2}$O$_{3}$,0.0,eV,,,,,,,
BPO$_{4}$,7.2565,eV,,,,,,,
KAlO,0.1318999999999999,eV,,,,,,,
LiMoO$_{2}$,1.8266,eV,,,,,,,
Y(AgCl$_{2}$)$_{3}$,2.8066,eV,,,,,,,
La$_{5}$TlTe$_{8}$,1.0812999999999997,eV,,,,,,,
AgBiI$_{4}$,0.9912000000000001,eV,,,,,,,
NdBRh$_{3}$,0.0,eV,,,,,,,
BaBi$_{2}$O$_{5}$,0.0,eV,,,,,,,
KAuS$_{5}$,1.7571,eV,,,,,,,
NiO$_{2}$,1.8142,eV,,,,,,,
LiMnO$_{2}$,0.9377999999999997,eV,,,,,,,
Ta$_{2}$Sn$_{2}$O$_{7}$,1.4851999999999999,eV,,,,,,,
Gd$_{3}$GaO$_{6}$,2.9661,eV,,,,,,,
ZnSiAs$_{2}$,0.8866,eV,,,,,,,
Li$_{2}$MoO$_{3}$,1.5972999999999997,eV,,,,,,,
Ba$_{4}$Nd$_{3}$F$_{17}$,6.347799999999999,eV,,,,,,,
K$_{9}$Ta$_{10}$O$_{30}$,2.2443,eV,,,,,,,
Ba(NdSe$_{2}$)$_{2}$,1.5998999999999999,eV,,,,,,,
BaUS$_{3}$,0.0,eV,,,,,,,
YAl$_{4}$Ni,0.09309999999999974,eV,,,,,,,
Co$_{2}$SnO$_{4}$,1.2959999999999994,eV,,,,,,,
ErAgS$_{2}$,0.6766999999999999,eV,,,,,,,
Ce$_{3}$(BN$_{2}$)$_{2}$,0.0,eV,,,,,,,
Ca(LaTe$_{2}$)$_{2}$,1.2605000000000004,eV,,,,,,,
PrOF,5.1636999999999995,eV,,,,,,,
Th(CoGe)$_{2}$,0.0,eV,,,,,,,
ScUS$_{2}$,0.0,eV,,,,,,,
SiPN$_{3}$,3.7652,eV,,,,,,,
MnSiN$_{2}$,0.5245999999999995,eV,,,,,,,
PNO,5.0722000000000005,eV,,,,,,,
Co$_{2}$TcO$_{4}$,0.0,eV,,,,,,,
Li$_{3}$NbO$_{4}$,1.0370999999999997,eV,,,,,,,
La$_{5}$SmS$_{8}$,0.0,eV,,,,,,,
Cu$_{2}$O,0.4996999999999998,eV,,,,,,,
Ca(SmS$_{2}$)$_{2}$,2.0833999999999997,eV,,,,,,,
Dy$_{2}$Hf$_{2}$O$_{7}$,3.2266999999999997,eV,,,,,,,
LiMgP,1.5391000000000004,eV,,,,,,,
NbSbO$_{4}$,2.3515,eV,,,,,,,
NaErS$_{2}$,2.3390000000000004,eV,,,,,,,
KTaO$_{3}$,2.0983,eV,,,,,,,
Nd(BO$_{2}$)$_{3}$,5.4208,eV,,,,,,,
Sm$_{2}$TmS$_{4}$,0.0,eV,,,,,,,
Na$_{10}$Zn$_{4}$O$_{9}$,1.4874,eV,,,,,,,
Sc$_{2}$FeSi$_{2}$,0.0,eV,,,,,,,
Ba$_{2}$TiO$_{4}$,1.8823999999999999,eV,,,,,,,
Ni$_{3}$S$_{2}$,0.0,eV,,,,,,,
TmCuSe$_{2}$,1.1678000000000002,eV,,,,,,,
Ag$_{2}$S,1.0844,eV,,,,,,,
Na$_{2}$PdF$_{4}$,1.2395999999999998,eV,,,,,,,
Ba(PrS$_{2}$)$_{2}$,1.9354,eV,,,,,,,
Na$_{3}$ZrF$_{7}$,6.1421,eV,,,,,,,
MnAlCo$_{2}$,0.0,eV,,,,,,,
NaTlO$_{2}$,0.7043999999999997,eV,,,,,,,
Na(ScI$_{3}$)$_{2}$,0.0,eV,,,,,,,
LiMn$_{8}$O$_{16}$,0.0,eV,,,,,,,
H$_{4}$BrN,4.0508999999999995,eV,,,,,,,
Nd$_{5}$CuSe$_{8}$,0.9416000000000002,eV,,,,,,,
Cs$_{2}$TaS$_{6}$,0.0,eV,,,,,,,
SrZrO$_{3}$,3.4160000000000004,eV,,,,,,,
BrO$_{2}$F,2.8867,eV,,,,,,,
Eu(Mo$_{3}$S$_{4}$)$_{2}$,0.002500000000000391,eV,,,,,,,
NbGe$_{2}$,0.0,eV,,,,,,,
HoInAu,0.0,eV,,,,,,,
Pr$_{2}$UTe$_{4}$,0.0,eV,,,,,,,
YSF,2.5592999999999995,eV,,,,,,,
SrUO$_{4}$,1.9691000000000005,eV,,,,,,,
Er(Al$_{2}$Fe)$_{4}$,0.0,eV,,,,,,,
LiBO$_{2}$,5.226,eV,,,,,,,
Ca(GdS$_{2}$)$_{2}$,1.4014000000000002,eV,,,,,,,
YOF,4.9285,eV,,,,,,,
Cu$_{2}$P$_{2}$O$_{7}$,0.0,eV,,,,,,,
Sn(PS$_{3}$)$_{2}$,1.1942999999999997,eV,,,,,,,
Ag$_{3}$(PO$_{4}$)$_{2}$,0.0,eV,,,,,,,
La$_{2}$CdS$_{4}$,1.7847999999999997,eV,,,,,,,
AlRh,0.0,eV,,,,,,,
Nb$_{6}$Si$_{7}$Ni$_{16}$,0.0,eV,,,,,,,
Eu(NdSe$_{2}$)$_{2}$,0.4859,eV,,,,,,,
ScCuO$_{2}$,2.3309,eV,,,,,,,
Al$_{2}$CoO$_{4}$,3.0006999999999993,eV,,,,,,,
Al$_{2}$FeO$_{4}$,2.3609,eV,,,,,,,
LiGaS$_{2}$,2.9608,eV,,,,,,,
MgB$_{4}$,0.36409999999999965,eV,,,,,,,
HfCu$_{2}$Te$_{3}$,0.058699999999999974,eV,,,,,,,
SnHgF$_{6}$,2.4352,eV,,,,,,,
Nd(SiRh)$_{2}$,0.0,eV,,,,,,,
Pr$_{2}$USe$_{4}$,0.0,eV,,,,,,,
Ta$_{9}$(FeS$_{3}$)$_{2}$,0.014899999999999913,eV,,,,,,,
AcOF,4.256600000000001,eV,,,,,,,
Na$_{3}$(WO$_{3}$)$_{10}$,0.0,eV,,,,,,,
Mg(SbO$_{3}$)$_{2}$,1.0374999999999996,eV,,,,,,,
NaCeS$_{2}$,0.0,eV,,,,,,,
La$_{2}$PbS$_{4}$,2.1548999999999996,eV,,,,,,,
KBiSe$_{2}$,0.8241,eV,,,,,,,
RbCaF$_{3}$,6.397399999999999,eV,,,,,,,
TiCo$_{2}$Si,0.0,eV,,,,,,,
Sr(AsS$_{2}$)$_{2}$,1.7016,eV,,,,,,,
NaHS,3.1472,eV,,,,,,,
Nd$_{5}$AgSe$_{8}$,1.4881000000000002,eV,,,,,,,
LiB$_{3}$O$_{5}$,6.3532,eV,,,,,,,
Ag$_{3}$SBr,0.3943000000000001,eV,,,,,,,
Ta$_{4}$GaSe$_{8}$,0,eV,,,,,,,
NdTlS$_{2}$,1.6441,eV,,,,,,,
Cd(Ga$_{3}$Te$_{5}$)$_{2}$,0.6335999999999999,eV,,,,,,,
LiTaO$_{3}$,3.7003,eV,,,,,,,
P$_{2}$S$_{2}$O$_{3}$,3.974,eV,,,,,,,
CdGeP$_{2}$,0.6455000000000002,eV,,,,,,,
Mn(NbS$_{2}$)$_{4}$,0.0,eV,,,,,,,
Ce$_{2}$Y$_{2}$O$_{7}$,1.7347000000000001,eV,,,,,,,
Sm$_{4}$Sb$_{3}$,0.0,eV,,,,,,,
NaNbO$_{3}$,2.3619,eV,,,,,,,
Na(Sm$_{2}$Se$_{3}$)$_{4}$,0.0,eV,,,,,,,
La$_{2}$CdSe$_{4}$,1.0990000000000002,eV,,,,,,,
CeThO$_{4}$,1.6536000000000008,eV,,,,,,,
Fe$_{2}$CoO$_{4}$,1.1935999999999996,eV,,,,,,,
In$_{5}$AgS$_{8}$,0.0,eV,,,,,,,
MgCu$_{4}$Sn,0.0,eV,,,,,,,
Ti(CoO$_{2}$)$_{2}$,1.1373999999999995,eV,,,,,,,
MgSiN$_{2}$,3.9662000000000006,eV,,,,,,,
SrAl$_{2}$O$_{4}$,3.9618999999999995,eV,,,,,,,
PNO,4.9201999999999995,eV,,,,,,,
Tb(SiRu)$_{2}$,0.0,eV,,,,,,,
NiSbS,0.0,eV,,,,,,,
LiNdS$_{2}$,1.8575,eV,,,,,,,
P$_{2}$O$_{3}$,3.8266,eV,,,,,,,
Er$_{2}$Fe$_{14}$B,0.0,eV,,,,,,,
MgTaN$_{2}$,0.0,eV,,,,,,,
Fe$_{11}$(NiO$_{3}$)$_{8}$,0.3506999999999998,eV,,,,,,,
Sr(CeSe$_{2}$)$_{2}$,0.0,eV,,,,,,,
KCuF$_{3}$,0.009199999999999986,eV,,,,,,,
Nd$_{2}$CdSe$_{4}$,0.9937000000000005,eV,,,,,,,
Ho$_{3}$(CuGe)$_{4}$,0.0,eV,,,,,,,
Sr$_{4}$Ru$_{2}$O$_{9}$,0.0,eV,,,,,,,
Mn$_{2}$NiO$_{4}$,0.0,eV,,,,,,,
YbBRh$_{3}$,0.0,eV,,,,,,,
Li$_{2}$TiO$_{3}$,2.4033999999999995,eV,,,,,,,
Al$_{2}$CdO$_{4}$,2.676,eV,,,,,,,
Na(CoO$_{2}$)$_{3}$,0.7191999999999998,eV,,,,,,,
Er$_{2}$Sn$_{2}$O$_{7}$,2.673,eV,,,,,,,
Mn$_{2}$SnO$_{4}$,0.0,eV,,,,,,,
NdCo$_{4}$B,0.0,eV,,,,,,,
TaBi$_{3}$O$_{7}$,2.2546999999999997,eV,,,,,,,
Br$_{3}$N,0.0,eV,,,,,,,
TbAl$_{3}$,0.0,eV,,,,,,,
KNO$_{3}$,2.9543,eV,,,,,,,
Pr$_{2}$CdS$_{4}$,1.6469999999999998,eV,,,,,,,
K$_{6}$Fe$_{2}$O$_{5}$,1.314,eV,,,,,,,
HoBPd$_{3}$,0.0,eV,,,,,,,
NdPS$_{4}$,2.2519,eV,,,,,,,
Mg(CN)$_{2}$,6.162699999999999,eV,,,,,,,
TlBiS$_{2}$,0.0,eV,,,,,,,
UNb$_{3}$O$_{10}$,0.0,eV,,,,,,,
NaSm$_{2}$Se$_{3}$,0.0,eV,,,,,,,
SrAlSi,0.0,eV,,,,,,,
Mg(TiS$_{2}$)$_{8}$,0.0,eV,,,,,,,
Ca(AlSe$_{2}$)$_{2}$,2.8458,eV,,,,,,,
CoAsS,0.0,eV,,,,,,,
CdS,0.2824,eV,,,,,,,
LiYF$_{4}$,7.8341,eV,,,,,,,
Sc(Al$_{2}$Fe)$_{4}$,0.0,eV,,,,,,,
GdPaO$_{4}$,2.3198,eV,,,,,,,
FeCuPt$_{2}$,0.0,eV,,,,,,,
Ho$_{10}$Ti$_{6}$O$_{27}$,2.5593000000000004,eV,,,,,,,
TaBi$_{3}$O$_{7}$,2.0397,eV,,,,,,,
Bi$_{2}$O$_{3}$,1.6863000000000001,eV,,,,,,,
Cs$_{2}$Mn$_{3}$Se$_{4}$,0.4400999999999997,eV,,,,,,,
Ce$_{2}$SmS$_{4}$,0.0,eV,,,,,,,
Ho$_{2}$Co$_{12}$P$_{7}$,0.0,eV,,,,,,,
CaGe$_{2}$O$_{5}$,2.7091,eV,,,,,,,
Pr$_{2}$SmS$_{4}$,0.0,eV,,,,,,,
Tl(FeTe)$_{3}$,0.0,eV,,,,,,,
Tb(CoGe)$_{2}$,0.0,eV,,,,,,,
Sr(AlTe$_{2}$)$_{2}$,1.4454000000000002,eV,,,,,,,
La$_{3}$Tl,0.0,eV,,,,,,,
HoBRh$_{3}$,0.0,eV,,,,,,,
Sr(NdS$_{2}$)$_{2}$,2.1031999999999997,eV,,,,,,,
CoGeTe,0.053300000000000125,eV,,,,,,,
AgAsF$_{6}$,1.6805999999999999,eV,,,,,,,
TbNiSb,0.3318000000000003,eV,,,,,,,
Ag$_{2}$HgI$_{4}$,0.09169999999999989,eV,,,,,,,
U$_{12}$Rh$_{4}$Se$_{31}$,0.0,eV,,,,,,,
LuBRh$_{3}$,0.0,eV,,,,,,,
Ta$_{2}$CN,0.0,eV,,,,,,,
ThTeO,0.24179999999999957,eV,,,,,,,
Sr(GdS$_{2}$)$_{2}$,1.3360999999999996,eV,,,,,,,
Rb$_{3}$NbS$_{4}$,2.4442,eV,,,,,,,
Ce(NdS$_{2}$)$_{2}$,0.0,eV,,,,,,,
Li$_{5}$GaO$_{4}$,3.5894,eV,,,,,,,
SrHfO$_{3}$,4.0578,eV,,,,,,,
MnPbO$_{3}$,0.0,eV,,,,,,,
CdPbF$_{6}$,2.3364000000000003,eV,,,,,,,
Nd$_{2}$CdS$_{4}$,1.6895999999999995,eV,,,,,,,
Na$_{2}$RuO$_{3}$,0.0,eV,,,,,,,
Li$_{2}$GaPt,0.0,eV,,,,,,,
Ca(NdTe$_{2}$)$_{2}$,1.0995999999999997,eV,,,,,,,
NaYF$_{4}$,7.3759,eV,,,,,,,
Nd$_{3}$NbO$_{7}$,2.6460000000000004,eV,,,,,,,
U$_{2}$PS,0.0,eV,,,,,,,
Na(WO$_{3}$)$_{2}$,0.0023999999999997357,eV,,,,,,,
LiNbO$_{3}$,3.3358000000000003,eV,,,,,,,
Dy$_{10}$Ti$_{6}$O$_{27}$,2.5756,eV,,,,,,,
Na(La$_{2}$Se$_{3}$)$_{4}$,0.0,eV,,,,,,,
Mg$_{3}$(HO$_{3}$)$_{2}$,2.2218,eV,,,,,,,
Ti$_{2}$CS,0.0,eV,,,,,,,
BeTl$_{2}$F$_{4}$,4.4409,eV,,,,,,,
Sr$_{2}$Co$_{2}$O$_{5}$,0.02090000000000003,eV,,,,,,,
NdSi$_{2}$Ni,0.0,eV,,,,,,,
GdPO$_{4}$,2.8647000000000005,eV,,,,,,,
ZrAlCu$_{2}$,0.0,eV,,,,,,,
SmOF,5.4397,eV,,,,,,,
La$_{2}$SmS$_{4}$,0.0,eV,,,,,,,
NdCuSe$_{2}$,0.7506000000000004,eV,,,,,,,
Li$_{7}$NbO$_{6}$,3.5059,eV,,,,,,,
CrB$_{2}$,0.0,eV,,,,,,,
TiNi$_{2}$Sn,0.0235000000000003,eV,,,,,,,
Al$_{5}$CuSe$_{8}$,0.5141999999999998,eV,,,,,,,
Na$_{4}$S$_{2}$O$_{5}$,2.2212,eV,,,,,,,
Li$_{7}$SbO$_{6}$,3.4465000000000003,eV,,,,,,,
NaNbO$_{2}$,1.3781999999999996,eV,,,,,,,
Nd$_{5}$AgS$_{8}$,1.6121999999999996,eV,,,,,,,
Na$_{2}$HF$_{4}$,1.2904,eV,,,,,,,
Ti$_{3}$AlC$_{2}$,0.0,eV,,,,,,,
TiOF$_{2}$,1.8523,eV,,,,,,,
La$_{5}$AgS$_{8}$,1.5947000000000005,eV,,,,,,,
AlCuO$_{2}$,1.7978000000000005,eV,,,,,,,
LiSbSe$_{2}$,0.0,eV,,,,,,,
NaCe$_{5}$S$_{8}$,0.0,eV,,,,,,,
Li$_{5}$NCl$_{2}$,1.9488,eV,,,,,,,
UO$_{3}$,1.6349999999999998,eV,,,,,,,
In$_{10}$Sb$_{9}$Te,0.0,eV,,,,,,,
NbFeO$_{4}$,1.8479999999999994,eV,,,,,,,
AlTlF$_{4}$,4.4298,eV,,,,,,,
SrCuO$_{2}$,0.6403000000000003,eV,,,,,,,
Ca(PrTe$_{2}$)$_{2}$,1.1032000000000002,eV,,,,,,,
Nd$_{2}$USe$_{4}$,0.0,eV,,,,,,,
Mg$_{2}$Ta$_{3}$N$_{5}$,0.0,eV,,,,,,,
SmTaO$_{4}$,4.0324,eV,,,,,,,
Eu(NiP)$_{2}$,0.0,eV,,,,,,,
MgGeO$_{3}$,3.6483000000000003,eV,,,,,,,
PrSn$_{3}$,0.0,eV,,,,,,,
LiNdSe$_{2}$,1.523,eV,,,,,,,
Al$_{2}$NiO$_{4}$,3.4756,eV,,,,,,,
VCu$_{3}$S$_{4}$,1.0305000000000004,eV,,,,,,,
LiMnO$_{2}$,0.0,eV,,,,,,,
Al$_{2}$CoO$_{4}$,1.8081000000000005,eV,,,,,,,
Te$_{3}$P$_{2}$O$_{11}$,3.4223,eV,,,,,,,
Sr(PO$_{3}$)$_{2}$,5.6893,eV,,,,,,,
Ca$_{3}$SiO$_{5}$,2.9156,eV,,,,,,,
KN$_{3}$O$_{4}$,2.8383000000000003,eV,,,,,,,
LiGdSe$_{2}$,1.2090999999999998,eV,,,,,,,
ErBRh$_{3}$,0.0,eV,,,,,,,
Li$_{3}$RuO$_{4}$,0.0,eV,,,,,,,
Eu(NdS$_{2}$)$_{2}$,0.32979999999999965,eV,,,,,,,
LuRh,0.0,eV,,,,,,,
Li$_{2}$Ce$_{2}$Ge$_{3}$,0,eV,,,,,,,
MgTiO$_{3}$,3.5294999999999996,eV,,,,,,,
Cd(GaSe$_{2}$)$_{2}$,1.3457000000000001,eV,,,,,,,
KBH$_{4}$,6.0978,eV,,,,,,,
Er$_{10}$Ti$_{6}$O$_{27}$,1.721,eV,,,,,,,
HfTiF$_{6}$,0.0,eV,,,,,,,
Ba(LaSe$_{2}$)$_{2}$,1.7602000000000002,eV,,,,,,,
LiHS,3.4957000000000003,eV,,,,,,,
Na$_{10}$Fe$_{4}$O$_{9}$,0.5540999999999996,eV,,,,,,,
Na$_{2}$SiF$_{6}$,6.9887999999999995,eV,,,,,,,
Er$_{2}$Mo$_{2}$C$_{3}$,0.0,eV,,,,,,,
BaSiN$_{2}$,2.9202000000000004,eV,,,,,,,
Fe$_{5}$CuO$_{8}$,0.0,eV,,,,,,,
Mg$_{3}$(Al$_{9}$Cr)$_{2}$,0.0,eV,,,,,,,
CrSiTe$_{3}$,0.5279999999999996,eV,,,,,,,
ErSi,0.0,eV,,,,,,,
Sc(TiN)$_{9}$,0.0,eV,,,,,,,
Nd$_{3}$Sb$_{5}$O$_{12}$,3.1547000000000005,eV,,,,,,,
La$_{5}$TlSe$_{8}$,1.3176999999999994,eV,,,,,,,
Al(HO)$_{3}$,4.9076,eV,,,,,,,
Li$_{7}$RuO$_{6}$,0.6535000000000002,eV,,,,,,,
La$_{12}$Ni$_{6}$O$_{25}$,0.0602999999999998,eV,,,,,,,
TlGaTe$_{2}$,0.5316999999999998,eV,,,,,,,
Sr(PrSe$_{2}$)$_{2}$,1.7496999999999998,eV,,,,,,,
RbFe$_{2}$S$_{3}$,0.0,eV,,,,,,,
Li$_{3}$ErBr$_{6}$,4.3485,eV,,,,,,,
LiYSe$_{2}$,1.5505,eV,,,,,,,
SrAl$_{4}$O$_{7}$,3.7468000000000004,eV,,,,,,,
In$_{2}$HgTe$_{4}$,0.0,eV,,,,,,,
Zn$_{2}$SiO$_{4}$,2.7537000000000003,eV,,,,,,,
AgSe,0.0,eV,,,,,,,
SrNb$_{8}$O$_{14}$,0.25839999999999996,eV,,,,,,,
LiMgN,2.2706999999999997,eV,,,,,,,
ScCo$_{2}$Sn,0.0,eV,,,,,,,
YCBr,0.0,eV,,,,,,,
YAlO$_{3}$,5.5402,eV,,,,,,,
AgAuS$_{2}$,0.21299999999999963,eV,,,,,,,
Sm$_{5}$AgS$_{8}$,1.6384999999999996,eV,,,,,,,
Na$_{4}$C$_{2}$O$_{5}$,2.7228,eV,,,,,,,
NdSiAg,0.0,eV,,,,,,,
NaZnF$_{3}$,3.7676,eV,,,,,,,
Na$_{3}$(W$_{2}$O$_{3}$)$_{2}$,0.03180000000000005,eV,,,,,,,
K$_{3}$AsS$_{4}$,2.0132,eV,,,,,,,
GdSF,1.0983999999999998,eV,,,,,,,
AlPO$_{4}$,5.4564,eV,,,,,,,
Ti$_{3}$Zn$_{2}$O$_{8}$,1.8044000000000002,eV,,,,,,,
ZnSe,1.2004,eV,,,,,,,
Yb$_{3}$Al$_{5}$O$_{12}$,0.0,eV,,,,,,,
Li$_{2}$CdCl$_{4}$,3.6296999999999997,eV,,,,,,,
KHS,3.2247999999999997,eV,,,,,,,
Na$_{2}$PtO$_{3}$,0.6193999999999997,eV,,,,,,,
Ta$_{4}$AlC$_{3}$,0.0,eV,,,,,,,
SrCO$_{3}$,4.6569,eV,,,,,,,
Sr(PRu)$_{2}$,0.0,eV,,,,,,,
Al(FeB)$_{2}$,0.0,eV,,,,,,,
Al$_{2}$CdSe$_{4}$,1.2611000000000003,eV,,,,,,,
Rb(TeO$_{3}$)$_{2}$,0.0,eV,,,,,,,
KCe$_{5}$S$_{8}$,0.0,eV,,,,,,,
K$_{2}$UO$_{4}$,1.9745,eV,,,,,,,
Na$_{10}$Mn$_{4}$O$_{9}$,0.49319999999999986,eV,,,,,,,
Fe$_{2}$CuO$_{4}$,0.022299999999999542,eV,,,,,,,
Rb$_{4}$Cl$_{2}$O,1.5163000000000002,eV,,,,,,,
SiRu,0.0,eV,,,,,,,
Hg(AsO$_{3}$)$_{2}$,0.7083000000000004,eV,,,,,,,
Na$_{3}$CeF$_{7}$,2.6973000000000003,eV,,,,,,,
NaClO$_{4}$,5.2812,eV,,,,,,,
Ba$_{3}$Pt$_{2}$O$_{7}$,0.0,eV,,,,,,,
Ba(GaTe$_{2}$)$_{2}$,0.5282,eV,,,,,,,
Sm$_{2}$CdSe$_{4}$,1.0448000000000004,eV,,,,,,,
Ba$_{2}$ZrS$_{4}$,0.6025,eV,,,,,,,
Sr(SmSe$_{2}$)$_{2}$,1.7782999999999998,eV,,,,,,,
Er$_{6}$Ni$_{2}$Sn,0.0,eV,,,,,,,
Sm$_{5}$CuSe$_{8}$,1.0027999999999997,eV,,,,,,,
La$_{2}$Au$_{5}$F$_{21}$,1.8445,eV,,,,,,,
Cd(InSe$_{2}$)$_{2}$,0.0,eV,,,,,,,
Rb$_{2}$ZnI$_{3}$,0.0,eV,,,,,,,
YOF,5.6328,eV,,,,,,,
Th$_{3}$As$_{4}$,0.2716000000000003,eV,,,,,,,
Li$_{2}$PS$_{3}$,0.0,eV,,,,,,,
K$_{2}$PtF$_{6}$,2.5717,eV,,,,,,,
Ta$_{2}$TlO$_{6}$,0.0,eV,,,,,,,
SrCO$_{3}$,4.425400000000001,eV,,,,,,,
RbNO$_{3}$,3.0132,eV,,,,,,,
NaCN,5.2876,eV,,,,,,,
Ag$_{2}$O,0.016199999999999992,eV,,,,,,,
Ta$_{9}$(NiS$_{3}$)$_{2}$,0.0,eV,,,,,,,
Sr(PrS$_{2}$)$_{2}$,2.0955,eV,,,,,,,
Ce(SiPd)$_{2}$,0.0,eV,,,,,,,
KFeS$_{2}$,0.0,eV,,,,,,,
BaAl$_{2}$O$_{4}$,3.9419000000000004,eV,,,,,,,
Ce$_{2}$Nd$_{2}$O$_{7}$,1.7118000000000002,eV,,,,,,,
CdSnAs$_{2}$,0.02210000000000001,eV,,,,,,,
Sm(BiTe$_{2}$)$_{2}$,0.0,eV,,,,,,,
Rb$_{2}$Te,1.3732,eV,,,,,,,
NiAsS,0.03979999999999961,eV,,,,,,,
MgAl$_{2}$O$_{4}$,4.5367999999999995,eV,,,,,,,
SmPO$_{4}$,5.7418000000000005,eV,,,,,,,
Mg(IO$_{3}$)$_{2}$,3.4840000000000004,eV,,,,,,,
Tb$_{2}$CaS$_{4}$,2.1434000000000006,eV,,,,,,,
Mg(AlSi)$_{2}$,0.0,eV,,,,,,,
BaZrO$_{3}$,3.0377,eV,,,,,,,
Ca(Pr$_{2}$Se$_{3}$)$_{4}$,0.0019999999999997797,eV,,,,,,,
Ba(Mo$_{3}$S$_{4}$)$_{2}$,0.0,eV,,,,,,,
Ba$_{4}$Bi$_{3}$F$_{17}$,4.9991,eV,,,,,,,
Li$_{5}$ReN$_{4}$,2.8473,eV,,,,,,,
GaCuTe$_{2}$,0.20330000000000048,eV,,,,,,,
Ba(AlTe$_{2}$)$_{2}$,1.5052999999999996,eV,,,,,,,
MgP$_{4}$,0.7289000000000003,eV,,,,,,,
Li$_{5}$SiAs$_{3}$,0.0,eV,,,,,,,
Ba(CeS$_{2}$)$_{2}$,0.0,eV,,,,,,,
Tm$_{2}$Ti$_{2}$O$_{7}$,2.6252999999999997,eV,,,,,,,
CsNd$_{5}$Se$_{8}$,1.6224999999999996,eV,,,,,,,
LaBPd$_{3}$,0.0,eV,,,,,,,
Li$_{7}$Ti$_{12}$O$_{24}$,0.0,eV,,,,,,,
DyCoC$_{2}$,0.0,eV,,,,,,,
BaGe$_{4}$O$_{9}$,3.0551,eV,,,,,,,
Li$_{7}$BiO$_{6}$,1.8635,eV,,,,,,,
LiCo$_{7}$O$_{8}$,1.2248999999999999,eV,,,,,,,
Y$_{4}$AsSe$_{3}$,0.0,eV,,,,,,,
GaCuSe$_{2}$,0.0,eV,,,,,,,
Ag$_{2}$S,0.121,eV,,,,,,,
Tb$_{3}$(CuGe)$_{4}$,0.0,eV,,,,,,,
Y(MnSi)$_{2}$,0.0,eV,,,,,,,
Na$_{2}$BeF$_{4}$,6.7369,eV,,,,,,,
Ba$_{3}$(PO$_{4}$)$_{2}$,5.1417,eV,,,,,,,
NaTaO$_{3}$,2.6172000000000004,eV,,,,,,,
Ca(Nd$_{2}$Se$_{3}$)$_{4}$,0.0019000000000000128,eV,,,,,,,
Ca$_{2}$B$_{2}$O$_{5}$,4.7391,eV,,,,,,,
Sm$_{2}$AsSe,0.0,eV,,,,,,,
Sn(BiTe$_{2}$)$_{2}$,0.42110000000000003,eV,,,,,,,
Al(MoS$_{2}$)$_{4}$,0.0,eV,,,,,,,
Ca(AlGe)$_{2}$,0.0,eV,,,,,,,
Rb(WO$_{3}$)$_{6}$,0.22059999999999969,eV,,,,,,,
Pr$_{2}$Co$_{7}$B$_{3}$,0.0,eV,,,,,,,
Li$_{11}$(NiO$_{2}$)$_{12}$,0.012399999999999967,eV,,,,,,,
Pr$_{6}$Fe$_{13}$Ag,0.0,eV,,,,,,,
Co$_{2}$NiO$_{4}$,0.0,eV,,,,,,,
Li$_{2}$MgCl$_{4}$,5.2764,eV,,,,,,,
CeSbO$_{3}$,0.0,eV,,,,,,,
TbBRh$_{3}$,0.0,eV,,,,,,,
TbLiSe$_{2}$,1.5368000000000004,eV,,,,,,,
Sr$_{2}$Nb$_{2}$O$_{7}$,2.684,eV,,,,,,,
Ti$_{2}$SnC,0.0,eV,,,,,,,
Mg(AlS$_{2}$)$_{2}$,3.0678,eV,,,,,,,
NaBH$_{4}$,6.3248999999999995,eV,,,,,,,
Sr(ErS$_{2}$)$_{2}$,2.2745999999999995,eV,,,,,,,
Gd$_{2}$MgS$_{4}$,1.3708999999999998,eV,,,,,,,
Ba$_{2}$CuF$_{6}$,0.8402000000000001,eV,,,,,,,
ErPb$_{3}$,0.0,eV,,,,,,,
Cr$_{2}$CuSe$_{4}$,0.0,eV,,,,,,,
Ga$_{2}$CoO$_{4}$,0.9615,eV,,,,,,,
Sm$_{5}$AgSe$_{8}$,1.4720999999999997,eV,,,,,,,
Y$_{7}$ReO$_{14}$,0.9237000000000002,eV,,,,,,,
BaZnF$_{4}$,4.5489,eV,,,,,,,
Mg(TiS$_{2}$)$_{4}$,0.0,eV,,,,,,,
HfNbB$_{4}$,0.0,eV,,,,,,,
Ho$_{10}$Ti$_{6}$O$_{27}$,1.7341999999999995,eV,,,,,,,
Sm(SiRh)$_{2}$,0.0,eV,,,,,,,
Ho$_{2}$Sn$_{2}$O$_{7}$,2.6917,eV,,,,,,,
CaTa$_{2}$O$_{6}$,2.0946000000000002,eV,,,,,,,
Mn$_{2}$FeO$_{4}$,0.0,eV,,,,,,,
Zr$_{2}$AlC,0.0,eV,,,,,,,
Li$_{3}$GaN$_{2}$,2.3783,eV,,,,,,,
Ca(Ce$_{2}$Se$_{3}$)$_{4}$,0.0,eV,,,,,,,
NaBO$_{2}$,4.1074,eV,,,,,,,
SiPd,0.0,eV,,,,,,,
Sm$_{2}$Cr$_{2}$Fe$_{15}$,0.0,eV,,,,,,,
Nd$_{2}$SmS$_{4}$,0.0,eV,,,,,,,
EuTl$_{2}$Pd,0.006000000000000227,eV,,,,,,,
Y$_{3}$Pb$_{4}$F$_{17}$,5.0725,eV,,,,,,,
Tb(CoB)$_{2}$,0.0,eV,,,,,,,
Tb$_{2}$SmS$_{4}$,0.0,eV,,,,,,,
Ho(SiRh)$_{2}$,0.0,eV,,,,,,,
Ce$_{2}$Y$_{2}$O$_{7}$,1.6482,eV,,,,,,,
Mg(GaO$_{2}$)$_{2}$,2.4348999999999994,eV,,,,,,,
Y(SiIr)$_{2}$,0.0,eV,,,,,,,
SmPS$_{4}$,2.2148,eV,,,,,,,
Ga$_{2}$Te$_{3}$,0.6375000000000002,eV,,,,,,,
Eu(YS$_{2}$)$_{2}$,0.45279999999999987,eV,,,,,,,
Ba$_{3}$Re$_{2}$O$_{9}$,0.0,eV,,,,,,,
PNO,5.1318,eV,,,,,,,
NaAlSi$_{4}$,0.0,eV,,,,,,,
TiO$_{2}$,2.0517,eV,,,,,,,
Mg$_{3}$Al$_{14}$O$_{24}$,4.311599999999999,eV,,,,,,,