formula,Property Band Gap,Property Band Gap units,Property Band gap,Property Band gap units,Temperature (Property Band gap),Temperature (Property Band gap) units,Property Color,Temperature (Property Color),Temperature (Property Color) units
Te$_{2}$Mo$_{3}$WSe$_{6}$,0.0,eV,,,,,,,
Te$_{4}$Mo$_{3}$WSe$_{4}$,0.0,eV,,,,,,,
MoW(SeS)$_{2}$,0.7778,eV,,,,,,,
MoWSe$_{3}$S,0.8466,eV,,,,,,,
TeMo$_{2}$Se$_{3}$,0.0,eV,,,,,,,
TeMoSe,0.0,eV,,,,,,,
MoSeS,0.6042000000000001,eV,,,,,,,
MoSe$_{2}$,1.1384,eV,,,,,,,
TeMo$_{2}$S$_{3}$,0.0,eV,,,,,,,
Mo$_{3}$W(SeS)$_{4}$,0.6507999999999998,eV,,,,,,,
Mo$_{3}$W(Se$_{3}$S)$_{2}$,0.9023000000000003,eV,,,,,,,
Mo$_{3}$W(Se$_{3}$S)$_{2}$,0.6840999999999999,eV,,,,,,,
Mo$_{3}$W(SeS$_{3}$)$_{2}$,0.5583,eV,,,,,,,
Mo$_{3}$W(Se$_{3}$S)$_{2}$,0.8835000000000002,eV,,,,,,,
Mo$_{2}$SeS$_{3}$,0.5507,eV,,,,,,,
Mo$_{3}$W(SeS)$_{4}$,0.7101,eV,,,,,,,
Ho$_{3}$GaC,0.0,eV,,,,,,,
Te$_{6}$Mo$_{3}$WS$_{2}$,0.0,eV,,,,,,,
V$_{3}$Te$_{4}$,0.0,eV,,,,,,,
Nd$_{3}$GaC,0.0,eV,,,,,,,
ZnS,2.0481,eV,,,,,,,
SmSi$_{3}$Ni,0.0,eV,,,,,,,
YSi$_{3}$Ni,0.0,eV,,,,,,,
Mo$_{3}$WSe$_{8}$,0.9687999999999999,eV,,,,,,,
MoWSe$_{4}$,0.9440999999999997,eV,,,,,,,
Mo$_{3}$WSe$_{8}$,0.923,eV,,,,,,,
Te$_{4}$Mo$_{3}$WSe$_{4}$,0.6334,eV,,,,,,,
Te$_{6}$MoW$_{3}$Se$_{2}$,0.3249000000000004,eV,,,,,,,
TeMoWSe$_{3}$,0.0,eV,,,,,,,
WS$_{2}$,1.6559000000000001,eV,,,,,,,
Te$_{2}$W$_{2}$SeS,0.0,eV,,,,,,,
Te$_{3}$W$_{2}$Se,0.30960000000000054,eV,,,,,,,
TeWSe,0.2897999999999996,eV,,,,,,,
TeWSe,0.29190000000000005,eV,,,,,,,
MoW$_{3}$(Se$_{3}$S)$_{2}$,0.8915000000000002,eV,,,,,,,
TeW$_{2}$SeS$_{2}$,0.0,eV,,,,,,,
Te$_{2}$MoWSeS,0.0017999999999998018,eV,,,,,,,
MoW$_{3}$(SeS)$_{4}$,0.6242000000000001,eV,,,,,,,
Te$_{2}$MoWS$_{2}$,0.3788,eV,,,,,,,
W$_{2}$SeS$_{3}$,0.6294,eV,,,,,,,
WSeS,0.7584,eV,,,,,,,
TeW$_{2}$S$_{3}$,0.0,eV,,,,,,,
Te$_{2}$MoW$_{3}$(SeS$_{2}$)$_{2}$,0.09660000000000002,eV,,,,,,,
Te$_{4}$MoW$_{3}$(SeS)$_{2}$,0.007000000000000117,eV,,,,,,,
MoWSe$_{4}$,0.9424999999999999,eV,,,,,,,
Te$_{2}$MoWSe$_{2}$,0.03880000000000017,eV,,,,,,,
MoWSe$_{3}$S,0.9028999999999998,eV,,,,,,,
W$_{2}$SeS$_{3}$,0.7471999999999999,eV,,,,,,,
Te$_{8}$MoW$_{3}$,0.5643000000000002,eV,,,,,,,
Te$_{6}$MoW$_{3}$Se$_{2}$,0.3292999999999999,eV,,,,,,,
Te$_{2}$W,0.6218000000000004,eV,,,,,,,
TeWSe,0.26629999999999976,eV,,,,,,,
Te$_{3}$MoWSe,5.999999999999339E-4,eV,,,,,,,
Te$_{4}$MoW,0.5339,eV,,,,,,,
Te$_{6}$MoW$_{3}$Se$_{2}$,0.005700000000000038,eV,,,,,,,
Te$_{2}$MoWSe$_{2}$,0.026100000000000012,eV,,,,,,,
Te$_{3}$W$_{2}$Se,0.30849999999999955,eV,,,,,,,
KMnTe$_{2}$,0.0,eV,,,,,,,
Te$_{4}$MoW$_{3}$Se$_{4}$,0.1368999999999998,eV,,,,,,,
Te$_{4}$MoW$_{3}$S$_{4}$,0.03100000000000014,eV,,,,,,,
Te$_{2}$Mo(WSe$_{2}$)$_{3}$,0.06459999999999999,eV,,,,,,,
MoW$_{3}$(Se$_{3}$S)$_{2}$,0.8890000000000002,eV,,,,,,,
Te$_{3}$MoWS,0.025799999999999823,eV,,,,,,,
Te$_{6}$MoW$_{3}$Se$_{2}$,0.30269999999999975,eV,,,,,,,
Te$_{4}$MoW$_{3}$Se$_{4}$,0.2661000000000002,eV,,,,,,,
Te$_{4}$MoW$_{3}$Se$_{4}$,0.2727000000000004,eV,,,,,,,
WSeS,0.7620999999999998,eV,,,,,,,
Te$_{2}$MoW$_{3}$(SeS$_{2}$)$_{2}$,0.09150000000000036,eV,,,,,,,
TeW$_{2}$Se$_{2}$S,0.0,eV,,,,,,,
W$_{2}$Se$_{3}$S,0.6281999999999999,eV,,,,,,,
WSe$_{2}$,1.1997000000000002,eV,,,,,,,
RbMnTe$_{2}$,0.0,eV,,,,,,,
Te$_{4}$MoW$_{3}$Se$_{4}$,0.23220000000000063,eV,,,,,,,
TeW$_{2}$Se$_{3}$,0.033199999999999896,eV,,,,,,,
Te$_{2}$Mo(WSe$_{2}$)$_{3}$,0.0,eV,,,,,,,
TeWSe,0.23930000000000007,eV,,,,,,,
Te$_{3}$W$_{2}$S,0.0,eV,,,,,,,
TeW$_{2}$Se$_{3}$,0.10650000000000004,eV,,,,,,,
WSeS,0.7921,eV,,,,,,,
Te$_{6}$MoW$_{3}$S$_{2}$,0.012700000000000156,eV,,,,,,,
Te$_{4}$MoW$_{3}$Se$_{4}$,0.07240000000000002,eV,,,,,,,
W$_{2}$Se$_{3}$S,0.9274,eV,,,,,,,
WSeS,0.8118000000000003,eV,,,,,,,
LaCuTeS,0.4802999999999997,eV,,,,,,,
MoW$_{3}$Se$_{8}$,1.0016999999999996,eV,,,,,,,
Te$_{4}$MoW$_{3}$(SeS)$_{2}$,0.0411999999999999,eV,,,,,,,
Te$_{6}$MoW$_{3}$S$_{2}$,0.001100000000000101,eV,,,,,,,
Te$_{2}$MoWSe$_{2}$,0.05779999999999941,eV,,,,,,,
Te$_{2}$MoWSe$_{2}$,0.26259999999999994,eV,,,,,,,
MoW(SeS)$_{2}$,0.5540000000000003,eV,,,,,,,
Te$_{3}$MoWSe,0.33389999999999986,eV,,,,,,,
Te$_{4}$MoW$_{3}$Se$_{4}$,0.014100000000000001,eV,,,,,,,
MoW$_{3}$(SeS)$_{4}$,0.6073999999999997,eV,,,,,,,
MoWSe$_{3}$S,0.6859999999999999,eV,,,,,,,
TeMoWSeS$_{2}$,0.40700000000000003,eV,,,,,,,
Ca(BC)$_{2}$,0.4750999999999994,eV,,,,,,,
MoW$_{3}$(SeS$_{3}$)$_{2}$,0.5093999999999999,eV,,,,,,,
Te$_{2}$MoWSeS,0.12670000000000003,eV,,,,,,,
MoW$_{3}$(Se$_{3}$S)$_{2}$,0.6959,eV,,,,,,,
Te$_{2}$Mo(WS$_{2}$)$_{3}$,0.04600000000000026,eV,,,,,,,
MoW$_{3}$(SeS)$_{4}$,0.7551999999999999,eV,,,,,,,
Te$_{2}$MoWSe$_{2}$,0.3958999999999997,eV,,,,,,,
Te$_{2}$MoWSeS,0.042100000000000026,eV,,,,,,,
MoW$_{3}$(SeS)$_{4}$,0.899,eV,,,,,,,
MoW$_{3}$(Se$_{3}$S)$_{2}$,0.8952,eV,,,,,,,
MoWSe$_{4}$,1.0175999999999998,eV,,,,,,,
Te$_{3}$MoWS,0.026100000000000012,eV,,,,,,,
MoWSe$_{3}$S,0.8344,eV,,,,,,,
BaF$_{2}$,6.6189,eV,,,,,,,
Te$_{2}$MoWSeS,0.0047000000000001485,eV,,,,,,,
MoW$_{3}$(SeS)$_{4}$,0.7568000000000001,eV,,,,,,,
MoW$_{3}$(SeS)$_{4}$,0.7807000000000004,eV,,,,,,,
MoW$_{3}$(SeS$_{3}$)$_{2}$,0.6821000000000002,eV,,,,,,,
MoW$_{3}$(Se$_{3}$S)$_{2}$,0.8647,eV,,,,,,,
Te$_{4}$MoW$_{3}$(SeS)$_{2}$,0.006199999999999761,eV,,,,,,,
MoW$_{3}$(SeS)$_{4}$,0.5837000000000003,eV,,,,,,,
TeMoWSeS$_{2}$,0.18599999999999994,eV,,,,,,,
Te$_{2}$MoWSe$_{2}$,0.12399999999999967,eV,,,,,,,
MoW(SeS)$_{2}$,0.5893999999999999,eV,,,,,,,
Te$_{2}$Mo(WSe$_{2}$)$_{3}$,0.006299999999999972,eV,,,,,,,
Te$_{3}$MoWSe,0.006299999999999972,eV,,,,,,,
MoW(SeS)$_{2}$,0.7818,eV,,,,,,,
Te$_{4}$MoW$_{3}$Se$_{4}$,0.13239999999999963,eV,,,,,,,
Te$_{2}$MoWSe$_{2}$,0.11109999999999998,eV,,,,,,,
Te$_{6}$Mo$_{3}$WSe$_{2}$,0.009299999999999642,eV,,,,,,,
Te$_{2}$MoWSe$_{2}$,0.06750000000000034,eV,,,,,,,
Te$_{4}$Mo$_{3}$WSe$_{4}$,0.06630000000000003,eV,,,,,,,
Te$_{4}$MoW$_{3}$S$_{4}$,0.11129999999999995,eV,,,,,,,
MoW(SeS)$_{2}$,0.581,eV,,,,,,,
MoW$_{3}$(SeS$_{3}$)$_{2}$,0.5316999999999998,eV,,,,,,,
MoW$_{3}$(SeS$_{3}$)$_{2}$,0.5024000000000002,eV,,,,,,,
Te$_{3}$MoWSe,0.016000000000000014,eV,,,,,,,
Te$_{2}$MoWSe$_{2}$,0.25800000000000045,eV,,,,,,,
MoW$_{3}$S$_{8}$,1.2245,eV,,,,,,,
Te$_{3}$MoWSe,0.3442999999999996,eV,,,,,,,
Te$_{6}$MoW$_{3}$Se$_{2}$,0.31099999999999994,eV,,,,,,,
Te$_{4}$MoW,0.5682999999999998,eV,,,,,,,
Te$_{2}$MoWSe$_{2}$,0.2509999999999999,eV,,,,,,,
Te$_{4}$MoW$_{3}$Se$_{4}$,0.38180000000000014,eV,,,,,,,
TeMoWSeS$_{2}$,0.20420000000000016,eV,,,,,,,
Te$_{3}$MoWSe,0.32889999999999997,eV,,,,,,,
TeMoWSeS$_{2}$,0.1634000000000002,eV,,,,,,,
Te$_{3}$MoWSe,0.3287999999999993,eV,,,,,,,
BaC$_{2}$,2.1132,eV,,,,,,,
Te$_{2}$MoWSe$_{2}$,0.06909999999999972,eV,,,,,,,
Te$_{2}$MoWSe$_{2}$,0.0658000000000003,eV,,,,,,,
Te$_{2}$MoWSeS,0.1192000000000002,eV,,,,,,,
Sm(SiPt)$_{2}$,0.0,eV,,,,,,,
Ca$_{4}$PdO$_{6}$,1.8226999999999998,eV,,,,,,,
Te$_{2}$MoWSeS,0.16369999999999996,eV,,,,,,,
Te$_{2}$MoWSeS,0.03780000000000028,eV,,,,,,,
Te$_{2}$MoWS$_{2}$,0.29949999999999966,eV,,,,,,,
Te$_{2}$MoW$_{3}$(Se$_{2}$S)$_{2}$,0.5293999999999999,eV,,,,,,,
SbPt$_{7}$,0.0,eV,,,,,,,
ZrMoP,0.0,eV,,,,,,,
Sr$_{2}$ScIrO$_{6}$,0.0,eV,,,,,,,
Te$_{4}$MoW$_{3}$Se$_{4}$,0.2897999999999996,eV,,,,,,,
Te$_{6}$MoW$_{3}$Se$_{2}$,0.3418000000000001,eV,,,,,,,
Te$_{4}$MoW,0.5948000000000002,eV,,,,,,,
Te$_{6}$MoW$_{3}$Se$_{2}$,0.31820000000000004,eV,,,,,,,
Te$_{8}$MoW$_{3}$,0.5941999999999998,eV,,,,,,,
MoWS$_{4}$,1.1949,eV,,,,,,,
Te$_{4}$MoW$_{3}$Se$_{4}$,0.2556999999999996,eV,,,,,,,
MoWSeS$_{3}$,0.4556,eV,,,,,,,
MoWSeS$_{3}$,0.5496000000000003,eV,,,,,,,
Te$_{8}$Mo$_{3}$W,0.5529999999999999,eV,,,,,,,
Te$_{4}$Mo$_{3}$WSe$_{4}$,0.15359999999999996,eV,,,,,,,
Te$_{4}$MoW$_{3}$Se$_{4}$,0.07739999999999991,eV,,,,,,,
Te$_{6}$Mo$_{3}$WSe$_{2}$,0.36209999999999987,eV,,,,,,,
Te$_{3}$MoWSe,0.34999999999999964,eV,,,,,,,
Te$_{2}$MoWSe$_{2}$,0.24399999999999977,eV,,,,,,,
Te$_{2}$MoWSe$_{2}$,0.06979999999999986,eV,,,,,,,
Te$_{6}$Mo$_{3}$WSe$_{2}$,0.014000000000000234,eV,,,,,,,
Te$_{3}$MoWS,0.0045999999999999375,eV,,,,,,,
Ba$_{2}$ScIrO$_{6}$,0.0,eV,,,,,,,
Te$_{2}$MoWSeS,0.08820000000000006,eV,,,,,,,
Te$_{3}$MoWSe,0.005799999999999805,eV,,,,,,,
Te$_{2}$MoWSe$_{2}$,0.027900000000000258,eV,,,,,,,
TeMoWS$_{3}$,0.4432999999999998,eV,,,,,,,
Te$_{6}$Mo$_{3}$WS$_{2}$,0.044700000000000184,eV,,,,,,,
Te$_{2}$MoWSe$_{2}$,0.07419999999999982,eV,,,,,,,
Te$_{3}$MoWSe,0.0051000000000001044,eV,,,,,,,
Te$_{2}$Mo,0.5861999999999998,eV,,,,,,,
Te$_{6}$Mo$_{3}$WSe$_{2}$,0.008199999999999985,eV,,,,,,,
Te$_{6}$Mo$_{3}$WSe$_{2}$,0.2524999999999995,eV,,,,,,,
Te$_{8}$Mo$_{3}$W,0.5270000000000001,eV,,,,,,,
Te$_{6}$Mo$_{3}$WS$_{2}$,0.011800000000000033,eV,,,,,,,
Te$_{4}$MoW,0.5418000000000003,eV,,,,,,,
Te$_{6}$Mo$_{3}$WS$_{2}$,0.009300000000000086,eV,,,,,,,
Te$_{4}$Mo$_{3}$WS$_{4}$,0.33930000000000016,eV,,,,,,,
Te$_{6}$Mo$_{3}$WS$_{2}$,0.01670000000000016,eV,,,,,,,
Te$_{3}$MoWSe,0.3362999999999996,eV,,,,,,,
TeMoSe,0.01470000000000038,eV,,,,,,,
Te$_{2}$MoWS$_{2}$,0.05600000000000005,eV,,,,,,,
Te$_{4}$Mo$_{3}$W(SeS)$_{2}$,0.10760000000000014,eV,,,,,,,
Te$_{4}$Mo$_{3}$WSe$_{4}$,0.19730000000000025,eV,,,,,,,
Te$_{3}$MoWS,0.00550000000000006,eV,,,,,,,
Te$_{3}$Mo$_{2}$Se,0.19430000000000014,eV,,,,,,,
Te$_{6}$MoW$_{3}$Se$_{2}$,0.10460000000000003,eV,,,,,,,
Te$_{4}$Mo$_{3}$WSe$_{4}$,0.05369999999999919,eV,,,,,,,
Te$_{6}$Mo$_{3}$WSe$_{2}$,0.00790000000000024,eV,,,,,,,
Te$_{4}$MoW$_{3}$Se$_{4}$,0.08549999999999969,eV,,,,,,,
Te$_{2}$Mo$_{2}$SeS,0.025299999999999656,eV,,,,,,,
MoW$_{3}$(Se$_{3}$S)$_{2}$,0.9203000000000001,eV,,,,,,,
Te$_{4}$Mo$_{3}$W(SeS)$_{2}$,0,eV,,,,,,,
MoW$_{3}$Se$_{8}$,1.4655,eV,,,,,,,
Te$_{2}$Mo(WSe$_{2}$)$_{3}$,0.8183000000000002,eV,,,,,,,
Te$_{2}$Mo$_{3}$W(SeS$_{2}$)$_{2}$,0,eV,,,,,,,
Te$_{2}$MoWSe$_{2}$,0.5821000000000001,eV,,,,,,,
TeMoWSe$_{3}$,0.6537999999999999,eV,,,,,,,
MoWSe$_{3}$S,1.0623000000000002,eV,,,,,,,
TeMoWSeS$_{2}$,0.11709999999999976,eV,,,,,,,
MoWSe$_{3}$S,1.0995000000000001,eV,,,,,,,
MoW$_{3}$(SeS$_{3}$)$_{2}$,0.6825000000000001,eV,,,,,,,
Te$_{2}$Mo$_{3}$W(Se$_{2}$S)$_{2}$,0,eV,,,,,,,
MoWSe$_{3}$S,1.1533000000000002,eV,,,,,,,
Te$_{2}$Mo$_{3}$WSe$_{6}$,0.7014,eV,,,,,,,
MoW(SeS)$_{2}$,0.6101999999999999,eV,,,,,,,
TeMoWSe$_{2}$S,0.22560000000000002,eV,,,,,,,
Te$_{2}$MoWSeS,0.005199999999999871,eV,,,,,,,
MoWSe$_{3}$S,0.6985999999999999,eV,,,,,,,
MoW$_{3}$(SeS)$_{4}$,0.7535000000000003,eV,,,,,,,
MoWSe$_{4}$,1.1418,eV,,,,,,,
MoW$_{3}$(SeS)$_{4}$,1.2196000000000002,eV,,,,,,,
MoW$_{3}$(Se$_{3}$S)$_{2}$,0.6160000000000001,eV,,,,,,,
Te$_{2}$MoW$_{3}$(Se$_{2}$S)$_{2}$,0.038599999999999746,eV,,,,,,,
Te$_{2}$MoW$_{3}$(SeS$_{2}$)$_{2}$,0.1358999999999999,eV,,,,,,,
Te$_{2}$MoWSeS,0,eV,,,,,,,
Te$_{4}$Mo$_{3}$WSe$_{4}$,0.14349999999999996,eV,,,,,,,
Te$_{6}$Mo$_{3}$WSe$_{2}$,0.274,eV,,,,,,,
Te$_{2}$MoWSe$_{2}$,0.15009999999999968,eV,,,,,,,
Te$_{6}$Mo$_{3}$WSe$_{2}$,0.3473000000000006,eV,,,,,,,
Te$_{4}$Mo$_{3}$WSe$_{4}$,0.10920000000000041,eV,,,,,,,
Te$_{4}$Mo$_{3}$WSe$_{4}$,0.06709999999999994,eV,,,,,,,
Te$_{3}$MoWSe,0.01750000000000007,eV,,,,,,,
Te$_{2}$MoWSe$_{2}$,0.0882000000000005,eV,,,,,,,
Te$_{2}$MoWSeS,0.1368999999999998,eV,,,,,,,
TeMoSe,0.04360000000000053,eV,,,,,,,
Te$_{3}$Mo$_{2}$Se,0.16480000000000006,eV,,,,,,,
TeMoSe,0.3348,eV,,,,,,,
Te$_{4}$Mo$_{3}$WSe$_{4}$,0.05379999999999985,eV,,,,,,,
Te$_{2}$MoWSe$_{2}$,0.0,eV,,,,,,,
MoW(SeS)$_{2}$,0.6036999999999999,eV,,,,,,,
MoWSeS$_{3}$,0.5539000000000001,eV,,,,,,,
Ho$_{2}$Ge$_{2}$Rh,0.0,eV,,,,,,,
GdCd,0.0,eV,,,,,,,
ZrVGe,0.0,eV,,,,,,,
Yb(ZnAs)$_{2}$,0.42859999999999987,eV,,,,,,,
CeCdAsO,0.0,eV,,,,,,,
Tb$_{2}$Co$_{3}$Si$_{5}$,0.0,eV,,,,,,,
Ta$_{2}$B,0.0,eV,,,,,,,
La$_{2}$MgRhO$_{6}$,0.0,eV,,,,,,,
La$_{2}$ZnRhO$_{6}$,0.0,eV,,,,,,,
BaHfN$_{2}$,1.2537000000000003,eV,,,,,,,
Zn(ReO$_{4}$)$_{2}$,3.9894,eV,,,,,,,
LaCrS$_{3}$,0.05600000000000005,eV,,,,,,,
BeNi,0.0,eV,,,,,,,
Pr(ZnP)$_{3}$,0.0389999999999997,eV,,,,,,,
Pr(CdP)$_{3}$,0.5112999999999999,eV,,,,,,,
Ba$_{2}$CuTeO$_{6}$,0.0,eV,,,,,,,
BaYCuTe$_{3}$,0.5362999999999998,eV,,,,,,,
BaYAgTe$_{3}$,0.7671000000000001,eV,,,,,,,
SrNbO$_{3}$,0.0,eV,,,,,,,
Th$_{2}$Cu,0.0,eV,,,,,,,
Na$_{2}$GeTeO$_{6}$,2.6512000000000002,eV,,,,,,,
SrGeTeO$_{6}$,2.9532,eV,,,,,,,
Tm$_{6}$ReO$_{12}$,0.05689999999999973,eV,,,,,,,
Sc$_{2}$BC$_{2}$,0.0,eV,,,,,,,
Ba$_{2}$PrNbO$_{6}$,2.9772000000000007,eV,,,,,,,
CsCa$_{2}$Ta$_{3}$O$_{10}$,2.1782000000000004,eV,,,,,,,
LaSc$_{3}$(BO$_{3}$)$_{4}$,4.1081,eV,,,,,,,
Na$_{2}$SnTeO$_{6}$,1.2355999999999998,eV,,,,,,,
BaNdCuBO$_{5}$,0.0,eV,,,,,,,
Tm$_{3}$GaC,0.0,eV,,,,,,,
Ho$_{3}$InC,0.0,eV,,,,,,,
Zr(CoGe)$_{6}$,0.0,eV,,,,,,,
NpRu$_{2}$,0.0,eV,,,,,,,
MnCoSi,0.0,eV,,,,,,,
Nb$_{2}$Co$_{3}$Si,0.0,eV,,,,,,,
HfSbRh,0.0,eV,,,,,,,
CoPSe,0.6400999999999994,eV,,,,,,,
PrPt$_{5}$,0.0,eV,,,,,,,
Cr$_{2}$GaN,0.0,eV,,,,,,,
Cr$_{3}$PdN,0.0,eV,,,,,,,
Cr$_{3}$PtN,0.0,eV,,,,,,,
Cr$_{3}$SnN,0.0,eV,,,,,,,
Cs$_{3}$Sb,0.6137000000000001,eV,,,,,,,
Hf$_{3}$(Cu$_{2}$Ge)$_{2}$,0.0,eV,,,,,,,
MgCu$_{2}$,0.0,eV,,,,,,,
K$_{2}$CuSb,1.1110999999999998,eV,,,,,,,
EuKPSe$_{4}$,0.0,eV,,,,,,,
LaTeAs,0.12230000000000008,eV,,,,,,,
Sm$_{3}$CrSe$_{6}$,0.05870000000000042,eV,,,,,,,
Nb$_{5}$(PPd)$_{4}$,0.0,eV,,,,,,,
MgTe,2.3611999999999997,eV,,,,,,,
Ta$_{2}$O$_{5}$,1.2267000000000001,eV,,,,,,,
Sr$_{3}$CdPtO$_{6}$,2.04,eV,,,,,,,
SmGaSb$_{2}$,0.0,eV,,,,,,,
CrCoGe,0.0,eV,,,,,,,
HoNi$_{4}$B,0,eV,,,,,,,
Sb,0.0,eV,,,,,,,
RbCd$_{13}$,0.0,eV,,,,,,,
Tl$_{2}$SnF$_{6}$,4.2911,eV,,,,,,,
TiTl$_{2}$F$_{6}$,3.871,eV,,,,,,,
C,1.0145,eV,,,,,,,
KBaBiTeO$_{6}$,1.7849000000000004,eV,,,,,,,
Li$_{5}$P(S$_{2}$Cl)$_{2}$,2.8384000000000005,eV,,,,,,,
Li$_{20}$Si$_{3}$P$_{3}$S$_{23}$Cl,2.5166000000000004,eV,,,,,,,
CeSe$_{2}$,0.4456,eV,,,,,,,
H$_{4}$PbI$_{3}$N,2.1129,eV,,,,,,,
NaFe$_{3}$P$_{3}$O$_{13}$,0.0014000000000000679,eV,,,,,,,
NaCr$_{2}$P$_{2}$O$_{9}$,0.679,eV,,,,,,,
NaOsO$_{3}$,0,eV,,,,,,,
RbOsO$_{3}$,0,eV,,,,,,,
Si$_{3}$H,0.9504999999999999,eV,,,,,,,
KMoO$_{3}$,0,eV,,,,,,,
Li(FeS$_{2}$)$_{2}$,0.0038000000000000256,eV,,,,,,,
NaMoO$_{3}$,0,eV,,,,,,,
KWO$_{3}$,0,eV,,,,,,,
AlV$_{2}$O$_{4}$,0.4051999999999998,eV,,,,,,,
Yb(AlSi)$_{2}$,0.0,eV,,,,,,,
Nb$_{3}$SiO$_{10}$,0.03079999999999994,eV,,,,,,,
K$_{2}$CN$_{2}$,3.1452999999999998,eV,,,,,,,
Ba$_{4}$Nd$_{2}$Cd$_{3}$Se$_{10}$,1.5191,eV,,,,,,,
Ba$_{4}$Sm$_{2}$Cd$_{3}$S$_{10}$,1.8925999999999998,eV,,,,,,,
Mn(SbS$_{2}$)$_{2}$,0.0,eV,,,,,,,
AgB(CN)$_{4}$,4.2761,eV,,,,,,,
Yb$_{3}$(GePd)$_{4}$,0.0,eV,,,,,,,
KSbO$_{2}$,2.0081999999999995,eV,,,,,,,
RbSbO$_{2}$,2.2517,eV,,,,,,,
Na$_{4}$ReN$_{3}$,2.4327,eV,,,,,,,
HfSi,0.0,eV,,,,,,,
RbAuC$_{2}$,2.1978999999999997,eV,,,,,,,
NaAuC$_{2}$,1.3112,eV,,,,,,,
KAuC$_{2}$,2.0269000000000004,eV,,,,,,,
Nb$_{2}$O$_{5}$,1.8521999999999998,eV,,,,,,,
Si(Cu$_{4}$Se$_{3}$)$_{2}$,0.4090000000000007,eV,,,,,,,
LaYO$_{3}$,4.341600000000001,eV,,,,,,,
HfV$_{2}$,0.0,eV,,,,,,,
Nb$_{5}$(NiP)$_{4}$,0.0,eV,,,,,,,
K$_{2}$UTe$_{3}$,0.009300000000000086,eV,,,,,,,
Y(AlSi)$_{2}$,0.0,eV,,,,,,,
Tb(AlSi)$_{2}$,0.0,eV,,,,,,,
Ba(CuSe)$_{2}$,0.37930000000000064,eV,,,,,,,
UIr$_{3}$,0.0,eV,,,,,,,
Mg(P$_{2}$Rh$_{3}$)$_{2}$,0.0,eV,,,,,,,
Sr(Cu$_{2}$As)$_{2}$,0,eV,,,,,,,
Eu(Cu$_{2}$As)$_{2}$,0.0,eV,,,,,,,
YbSiAu,0.0,eV,,,,,,,
Ca$_{2}$Al$_{2}$O$_{5}$,3.5637999999999996,eV,,,,,,,
Sc$_{6}$FeTe$_{2}$,0.0,eV,,,,,,,
Sc$_{6}$NiTe$_{2}$,0.0,eV,,,,,,,
Nd$_{2}$O$_{3}$,3.708,eV,,,,,,,
PrAlGe,0.0,eV,,,,,,,
Lu(SiRu)$_{2}$,0.0,eV,,,,,,,
SmTiGe,0.0,eV,,,,,,,
YTiGe,0.0,eV,,,,,,,
HfSiPt,0.0,eV,,,,,,,
HfSiPd,0.0,eV,,,,,,,
NbSn$_{2}$,0.0,eV,,,,,,,
NaSr$_{3}$SbO$_{6}$,2.9189,eV,,,,,,,
YCo$_{4}$B,0.0,eV,,,,,,,
CaF$_{2}$,7.4573,eV,,,,,,,
CeBPt$_{2}$,0.0,eV,,,,,,,
NbSiPt,0.0,eV,,,,,,,
Ca$_{3}$N$_{2}$,0.7733000000000003,eV,,,,,,,
NbSiRh,0.0,eV,,,,,,,
NaPF$_{6}$,7.008900000000001,eV,,,,,,,
NaEr(SO$_{4}$)$_{2}$,5.7442,eV,,,,,,,
RbAg$_{3}$Se$_{2}$,0.06259999999999999,eV,,,,,,,
CeAsRh,0.027800000000000047,eV,,,,,,,
TiNi,0.0,eV,,,,,,,
CsAg$_{5}$Se$_{3}$,0.0030999999999998806,eV,,,,,,,
RbAg$_{3}$Te$_{2}$,0.27939999999999987,eV,,,,,,,
BaLiSb,0.6946999999999997,eV,,,,,,,
Cd$_{2}$As$_{2}$O$_{7}$,1.5821999999999998,eV,,,,,,,
RbSb,0.7328000000000001,eV,,,,,,,
Cs$_{2}$Ti(AgS$_{2}$)$_{2}$,1.6088,eV,,,,,,,
Cs$_{2}$Ti(CuSe$_{2}$)$_{2}$,1.3708999999999998,eV,,,,,,,
SrAs,0.0123000000000002,eV,,,,,,,
Rb$_{2}$SiF$_{6}$,6.991199999999999,eV,,,,,,,
NdCuS$_{2}$,1.0786999999999995,eV,,,,,,,
SrC$_{2}$,2.3333,eV,,,,,,,
Pr$_{2}$CuO$_{4}$,0.0,eV,,,,,,,
LiZr$_{2}$(PO$_{4}$)$_{3}$,4.2387999999999995,eV,,,,,,,
Te,0.0,eV,,,,,,,
Ni$_{3}$S$_{4}$,0.0,eV,,,,,,,
Ho$_{5}$Ni$_{2}$Sb,0,eV,,,,,,,
BaCe$_{2}$MnS$_{5}$,0,eV,,,,,,,
MgB$_{4}$Os$_{3}$,0.0,eV,,,,,,,
ScB$_{4}$Os$_{3}$,0.0,eV,,,,,,,
BaGaBO$_{3}$F$_{2}$,4.9647,eV,,,,,,,
ErNi$_{3}$,0.009199999999999875,eV,,,,,,,
BaAlBO$_{3}$F$_{2}$,6.0437,eV,,,,,,,
Dy$_{6}$FeTe$_{2}$,0.0,eV,,,,,,,
LiScP$_{2}$O$_{7}$,4.7646,eV,,,,,,,
KVP$_{2}$S$_{7}$,0.07159999999999966,eV,,,,,,,
Cu$_{2}$SnS$_{3}$,0.02120000000000033,eV,,,,,,,
NaAu$_{2}$,0.0,eV,,,,,,,
LiNdTiO$_{4}$,2.2825,eV,,,,,,,
Y(AlGe)$_{2}$,0.0,eV,,,,,,,
CeSiO$_{4}$,1.4477999999999995,eV,,,,,,,
NaLi$_{2}$N,2.1346999999999996,eV,,,,,,,
Y$_{2}$AlSi$_{2}$,0.0,eV,,,,,,,
Ho$_{2}$AlSi$_{2}$,0.0,eV,,,,,,,
Er$_{2}$AlSi$_{2}$,0.0,eV,,,,,,,
NdZn,0.0,eV,,,,,,,
Tm$_{2}$AlSi$_{2}$,0.0,eV,,,,,,,
Lu$_{2}$AlSi$_{2}$,0.06929999999999925,eV,,,,,,,
Yb$_{2}$AlSi$_{2}$,0.0,eV,,,,,,,
YCuS$_{2}$,1.5967000000000002,eV,,,,,,,
Sm$_{10}$S$_{19}$,0.49650000000000016,eV,,,,,,,
ErTl,0.0,eV,,,,,,,
K$_{3}$SbO$_{4}$,1.8325,eV,,,,,,,
RbAuO,1.4283000000000001,eV,,,,,,,
CdSe,0.0,eV,,,,,,,
SrMg$_{2}$N$_{2}$,1.6917,eV,,,,,,,
RbBSe$_{3}$,1.6415,eV,,,,,,,
Mg(C$_{2}$N$_{3}$)$_{2}$,4.6077,eV,,,,,,,
Ca$_{3}$TlN,0.0,eV,,,,,,,
Ba$_{2}$LiReN$_{4}$,1.7902,eV,,,,,,,
Sr$_{2}$LiReN$_{4}$,1.8098999999999998,eV,,,,,,,
La$_{3}$(NbN$_{3}$)$_{2}$,0.0,eV,,,,,,,
Gd$_{3}$AuO$_{6}$,1.5063,eV,,,,,,,
Tb$_{2}$O$_{3}$,3.9006,eV,,,,,,,
Sm$_{3}$AuO$_{6}$,1.7207,eV,,,,,,,
SrN$_{2}$,0.0,eV,,,,,,,
Lu$_{3}$BC$_{3}$,0.0,eV,,,,,,,
YbSiIr,0.0,eV,,,,,,,
Al$_{3}$Ni$_{2}$,0.0,eV,,,,,,,
NaPN$_{2}$,4.6812000000000005,eV,,,,,,,
Sr$_{5}$NbN$_{5}$,1.1591,eV,,,,,,,
PdF$_{2}$,0.0,eV,,,,,,,
La(AlGe)$_{2}$,0.0,eV,,,,,,,
Nd(AlGe)$_{2}$,0.0,eV,,,,,,,
Ca$_{5}$P$_{12}$Rh$_{19}$,0.0,eV,,,,,,,
Ba$_{2}$LiOsO$_{6}$,0.0,eV,,,,,,,
NdCd,0.0,eV,,,,,,,
FeIr$_{3}$,0.0,eV,,,,,,,
Ag,0.0,eV,,,,,,,
CuSn,0.0,eV,,,,,,,
La$_{3}$AlC,0.0,eV,,,,,,,
Y$_{3}$GaC,0.0,eV,,,,,,,
Sm$_{3}$GaC,0.0,eV,,,,,,,
Sm$_{3}$TlC,0.0,eV,,,,,,,
Lu$_{3}$TlC,0.0,eV,,,,,,,
Y$_{3}$SnC,0.0,eV,,,,,,,
Lu$_{3}$SnC,0.0,eV,,,,,,,
PrPt$_{2}$,0.0,eV,,,,,,,
La$_{3}$PbC,0.0,eV,,,,,,,
SrLiP,0.7964000000000002,eV,,,,,,,
BaLiP,0.6981999999999999,eV,,,,,,,
BaLiAs,0.5951,eV,,,,,,,
Sr,0.0,eV,,,,,,,
LiInSe$_{2}$,0.8380999999999998,eV,,,,,,,
CeMg,0.0,eV,,,,,,,
LiPrO$_{2}$,3.5331999999999995,eV,,,,,,,
RbSbS$_{2}$,1.9474999999999998,eV,,,,,,,
ThSbRh,0.7443999999999997,eV,,,,,,,
USbRh,0.0,eV,,,,,,,
Yb(SiRh)$_{2}$,0.0,eV,,,,,,,
SrS,1.7902999999999998,eV,,,,,,,
TaS,0.0,eV,,,,,,,
TbS$_{2}$,0,eV,,,,,,,
TlS,0.0,eV,,,,,,,
TmS$_{2}$,0.0,eV,,,,,,,
CuF,0.0,eV,,,,,,,
SnSb,0.0,eV,,,,,,,
SrSb$_{2}$,0.0,eV,,,,,,,
ThSb,0.0,eV,,,,,,,
ZrSb,0.0,eV,,,,,,,
SmSe,0.0,eV,,,,,,,
TaTl$_{3}$Se$_{4}$,2.2547,eV,,,,,,,
TbSe,0.0,eV,,,,,,,
ThSe,0.0,eV,,,,,,,
TlSe,0.0,eV,,,,,,,
YbSe,2.2565999999999997,eV,,,,,,,
Si,0,eV,,,,,,,
YbSi,0,eV,,,,,,,
SmTe,0.0,eV,,,,,,,
SrTe,0.47520000000000007,eV,,,,,,,
TmTe,0.0,eV,,,,,,,
Dy,0.023400000000000087,eV,,,,,,,
Ho,0.011900000000000244,eV,,,,,,,
YbN,0.0,eV,,,,,,,
K$_{2}$CO$_{3}$,3.2835,eV,,,,,,,
Mn$_{3}$AgN,0,eV,,,,,,,
SrAgP,0.11359999999999992,eV,,,,,,,
Yb(SiAg)$_{2}$,0,eV,,,,,,,
Ba$_{3}$(AlGe)$_{2}$,0.0,eV,,,,,,,
LiAl,0.0,eV,,,,,,,
Ca$_{3}$(AlGe)$_{2}$,0.0,eV,,,,,,,
Sr$_{3}$(AlGe)$_{2}$,0.043099999999999916,eV,,,,,,,
Sm$_{3}$AlN,0.0,eV,,,,,,,
Ti$_{3}$AlN,0.0,eV,,,,,,,
Sc$_{2}$AlSi$_{2}$,0.0,eV,,,,,,,
CaPAu,0.0,eV,,,,,,,
AuSe,0.0,eV,,,,,,,
CuS$_{2}$,0.0,eV,,,,,,,
BaSe,1.2143000000000002,eV,,,,,,,
B$_{2}$Au,0.0,eV,,,,,,,
CaTe,0.0,eV,,,,,,,
CdCuSb,0.0,eV,,,,,,,
Li$_{2}$CdGe,0,eV,,,,,,,
LiCdP,0.0,eV,,,,,,,
CeO,0.0,eV,,,,,,,
HfSi$_{2}$,0.0,eV,,,,,,,
EuCoGe$_{3}$,0,eV,,,,,,,
CoGe,0.0,eV,,,,,,,
ScF$_{3}$,6.0729,eV,,,,,,,
ZnS,2.0186,eV,,,,,,,
Sr(GeRh)$_{2}$,0,eV,,,,,,,
Ba(GeRh)$_{2}$,0.0,eV,,,,,,,
LuRh$_{3}$C,0.0,eV,,,,,,,
Pu,0.0,eV,,,,,,,
CdSe,0.56,eV,,,,,,,
MgNi$_{3}$C,0.0,eV,,,,,,,
ZrRu$_{3}$C,0.0,eV,,,,,,,