formula,Property Band Gap,Property Band Gap units,Property Band gap,Property Band gap units,Temperature (Property Band gap),Temperature (Property Band gap) units,Property Color,Temperature (Property Color),Temperature (Property Color) units
NaCa$_{9}$Mn(PO$_{4}$)$_{7}$,4.3155,eV,,,,,,,
HoCu,0.0,eV,,,,,,,
Tb$_{3}$Fe$_{5}$O$_{12}$,1.8988,eV,,,,,,,
PrAgPb,0.0,eV,,,,,,,
Sc$_{3}$In,0.0,eV,,,,,,,
GdGeRu,0.0,eV,,,,,,,
USi,0.0,eV,,,,,,,
Sm$_{3}$InN,0.20399999999999974,eV,,,,,,,
TePb,0.8071999999999999,eV,,,,,,,
CeInAu,0.0,eV,,,,,,,
Yb$_{2}$MnSe$_{4}$,0.0,eV,,,,,,,
GdNbO$_{4}$,3.1849000000000003,eV,,,,,,,
MnCu$_{2}$SnS$_{4}$,0.0,eV,,,,,,,
InAuO$_{2}$,0.0,eV,,,,,,,
Cu$_{3}$Ge,0.0,eV,,,,,,,
Hf(FeGe)$_{6}$,0.0,eV,,,,,,,
Sc$_{3}$InB,0.12190000000000012,eV,,,,,,,
PbCN$_{2}$,1.7030999999999996,eV,,,,,,,
YSiRh,0.0,eV,,,,,,,
EuAsAu,0.04800000000000004,eV,,,,,,,
NbGa$_{3}$,0.0,eV,,,,,,,
CeMgPd,0.0,eV,,,,,,,
Cs$_{2}$CuPb(NO$_{2}$)$_{6}$,0.0,eV,,,,,,,
Ce$_{2}$In,0.0,eV,,,,,,,
MgPbF$_{6}$,3.0406,eV,,,,,,,
La$_{2}$CuO$_{4}$,0.0,eV,,,,,,,
EuTe,0.0,eV,,,,,,,
LaMnSi,0.0,eV,,,,,,,
ErMnSi,0.0,eV,,,,,,,
Sc(FeGe)$_{6}$,0.015500000000000291,eV,,,,,,,
CeB$_{4}$,0.0,eV,,,,,,,
YInPt,0.0,eV,,,,,,,
CeNiC$_{2}$,0.0,eV,,,,,,,
LaFeGe$_{3}$,0.0,eV,,,,,,,
GdInIr,0.0,eV,,,,,,,
NbPbS$_{2}$,0.0,eV,,,,,,,
Ni$_{3}$(PbSe)$_{2}$,0.0,eV,,,,,,,
Pr$_{3}$InC,0.0,eV,,,,,,,
TmN,0.15669999999999984,eV,,,,,,,
BaGd$_{2}$PtO$_{5}$,2.1917999999999997,eV,,,,,,,
YbBa$_{2}$NbO$_{6}$,0.0,eV,,,,,,,
Gd(SiPd)$_{2}$,0.016300000000000203,eV,,,,,,,
TmCoC,0.0,eV,,,,,,,
Li(TiS$_{2}$)$_{3}$,0.0,eV,,,,,,,
GdB$_{2}$Rh$_{2}$C,0.005799999999999805,eV,,,,,,,
Sm$_{3}$PbC,0.0,eV,,,,,,,
CaGa$_{4}$,0.0,eV,,,,,,,
LaGe$_{2}$,0.010899999999999466,eV,,,,,,,
UPb$_{3}$,0.0,eV,,,,,,,
EuGe$_{3}$Pt,0.0,eV,,,,,,,
Pr$_{3}$In,0.0,eV,,,,,,,
In$_{2}$HgTe$_{4}$,0.5270999999999999,eV,,,,,,,
CeSnPd,0.0,eV,,,,,,,
DyCoSi,0.0,eV,,,,,,,
NiAsRh,0.0,eV,,,,,,,
Tb$_{3}$InN,0.19430000000000014,eV,,,,,,,
NdSn$_{3}$,0.0,eV,,,,,,,
Dy(CoGe)$_{2}$,0.0,eV,,,,,,,
GdGa$_{2}$,0.0,eV,,,,,,,
Eu(CdSb)$_{2}$,0.0,eV,,,,,,,
Yb$_{3}$InC,0.0,eV,,,,,,,
Nd$_{3}$PbN,0.0,eV,,,,,,,
TbInCu,0.0,eV,,,,,,,
GdAg$_{2}$,2.999999999997449E-4,eV,,,,,,,
In$_{2}$Si$_{2}$O$_{7}$,1.8171,eV,,,,,,,
UCoAs$_{2}$,0.0,eV,,,,,,,
Sr(GeRu)$_{2}$,0.001700000000000479,eV,,,,,,,
Tb$_{2}$Ge$_{2}$Ru,0.0,eV,,,,,,,
Mn(BW)$_{2}$,0.0,eV,,,,,,,
HoPd$_{3}$,0.0,eV,,,,,,,
Rh(OF$_{3}$)$_{2}$,0.0,eV,,,,,,,
Ca(GeRu)$_{2}$,0.0030999999999998806,eV,,,,,,,
Zr(Fe$_{2}$Si)$_{2}$,0.0,eV,,,,,,,
EuSnP,0.033199999999999896,eV,,,,,,,
InS,1.3508000000000004,eV,,,,,,,
Ba$_{2}$Nb$_{5}$O$_{9}$,0.0,eV,,,,,,,
YMnGe,0.0,eV,,,,,,,
EuGePt,0.06050000000000022,eV,,,,,,,
BaPbF$_{6}$,3.0263999999999998,eV,,,,,,,
YbNi$_{2}$,0.0,eV,,,,,,,
Fe$_{11}$Si$_{5}$,0.0,eV,,,,,,,
EuRhO$_{3}$,0.0,eV,,,,,,,
CdIn$_{2}$O$_{4}$,0.9137000000000004,eV,,,,,,,
In$_{2}$Co$_{3}$S$_{2}$,0.02400000000000002,eV,,,,,,,
U(GePt)$_{2}$,0.0027999999999996916,eV,,,,,,,
USiIr,0.0,eV,,,,,,,
Co$_{3}$(SnS)$_{2}$,0.013099999999999667,eV,,,,,,,
Eu(ZnGe)$_{2}$,0.01540000000000008,eV,,,,,,,
Ba$_{2}$Sn,0.0,eV,,,,,,,
TaNiTe$_{2}$,0.0,eV,,,,,,,
USnRu,6.00000000000378E-4,eV,,,,,,,
Ba$_{2}$GdCu$_{3}$O$_{7}$,0.03730000000000011,eV,,,,,,,
NiAs$_{2}$,0.0,eV,,,,,,,
Sm$_{2}$In,0.0,eV,,,,,,,
Y$_{3}$InC,0.0,eV,,,,,,,
Dy$_{3}$PbC,0.0,eV,,,,,,,
GdIn,0.0,eV,,,,,,,
Al$_{21}$Pt$_{8}$,0.0,eV,,,,,,,
TmPb$_{3}$,0.0,eV,,,,,,,
Cr$_{2}$GeC,0.0,eV,,,,,,,
Ca(MnGe)$_{2}$,0.0,eV,,,,,,,
Pu$_{2}$InPd$_{2}$,0.0,eV,,,,,,,
CeAlPt,0.0,eV,,,,,,,
PuRu$_{3}$C,0.0,eV,,,,,,,
YbCrSb$_{3}$,0.0,eV,,,,,,,
ErN,0.11980000000000013,eV,,,,,,,
BaCoS$_{2}$,0.0,eV,,,,,,,
InAgS$_{2}$,0.37570000000000014,eV,,,,,,,
CeInCu$_{2}$,0.0,eV,,,,,,,
Nb$_{2}$InC,0.0,eV,,,,,,,
Tb$_{3}$TlC,0.0,eV,,,,,,,
Pu(CrSi)$_{2}$,0.0,eV,,,,,,,
LaGa$_{2}$,0.0,eV,,,,,,,
GdBRh$_{3}$,0.03139999999999965,eV,,,,,,,
ErGeRu,0.0,eV,,,,,,,
CeAlO$_{3}$,0.0,eV,,,,,,,
Na(FeSb$_{3}$)$_{4}$,0.0,eV,,,,,,,
TiPbO$_{3}$,1.5845000000000002,eV,,,,,,,
TlSbSe$_{2}$,0.0,eV,,,,,,,
Tm$_{3}$InN,0.0,eV,,,,,,,
PrCuSb$_{2}$,0.0,eV,,,,,,,
NpGa$_{2}$,0.0,eV,,,,,,,
C$_{3}$N$_{4}$,3.1729000000000003,eV,,,,,,,
MnCo$_{2}$Ge,0.0,eV,,,,,,,
KInTe$_{2}$,0.9868999999999999,eV,,,,,,,
Pr$_{2}$In,0.0,eV,,,,,,,
Cr$_{7}$C$_{3}$,0.0,eV,,,,,,,
SnPt,0.0,eV,,,,,,,
Ba(MnP)$_{2}$,0.001100000000000101,eV,,,,,,,
ZnO,0.6310999999999999,eV,,,,,,,
CeTiGe,0.0,eV,,,,,,,
LaCrSb$_{3}$,0.0,eV,,,,,,,
EuSi$_{2}$,0.0,eV,,,,,,,
K$_{2}$CuPb(NO$_{2}$)$_{6}$,0.0,eV,,,,,,,
Ce(MgSi)$_{2}$,0.0,eV,,,,,,,
UTeS,0.0,eV,,,,,,,
NpAs$_{2}$,0.0,eV,,,,,,,
GaFe$_{3}$,0.0,eV,,,,,,,
PbAu$_{2}$,0.0,eV,,,,,,,
UAl$_{2}$Cu,0.008199999999998653,eV,,,,,,,
DySiRu,0.0,eV,,,,,,,
GdSiRu,0.0,eV,,,,,,,
InNi,0.0,eV,,,,,,,
ZrNi$_{2}$Sn,0.0,eV,,,,,,,
YbMnGe,0.0,eV,,,,,,,
PPd$_{3}$,0.0,eV,,,,,,,
Y$_{5}$Mg$_{24}$,0.0,eV,,,,,,,
FeTe$_{2}$,0.07530000000000037,eV,,,,,,,
Dy$_{3}$InC,0.0,eV,,,,,,,
Mn$_{3}$P,0.0,eV,,,,,,,
InGaS$_{3}$,1.6761,eV,,,,,,,
ThSnPt,0.6738,eV,,,,,,,
Nb(FeGe)$_{6}$,0.02629999999999999,eV,,,,,,,
YbCuS$_{2}$,0.0,eV,,,,,,,
ThPb,0.0,eV,,,,,,,
URe$_{2}$,0.0,eV,,,,,,,
Pu$_{2}$C$_{3}$,0.0,eV,,,,,,,
PbCO$_{3}$,3.3293,eV,,,,,,,
NiSb$_{2}$,0.0,eV,,,,,,,
Li$_{2}$GePbS$_{4}$,2.2649000000000004,eV,,,,,,,
Eu$_{2}$TeO$_{2}$,0.0,eV,,,,,,,
LaGeRu,0.04050000000000065,eV,,,,,,,
Dy$_{3}$SnC,0.0,eV,,,,,,,
Mg$_{3}$As$_{2}$,1.431,eV,,,,,,,
La(GeRu)$_{2}$,0.0,eV,,,,,,,
EuInAu,0.020800000000000374,eV,,,,,,,
UCuAs$_{2}$,0.0,eV,,,,,,,
ZrNi$_{2}$Sb,0.0,eV,,,,,,,
Co$_{2}$Si,0.0,eV,,,,,,,
Zr$_{2}$InNi$_{2}$,0.0,eV,,,,,,,
In$_{2}$Se$_{3}$,0.0,eV,,,,,,,
EuF$_{3}$,0.0,eV,,,,,,,
Dy(CrSi)$_{2}$,0.0,eV,,,,,,,
Ce$_{2}$MgNi$_{2}$,0.0,eV,,,,,,,
TmIn$_{5}$Co,0.0,eV,,,,,,,
UMnSe$_{3}$,5.000000000006111E-4,eV,,,,,,,
Ba$_{3}$(InP$_{2}$)$_{2}$,1.1092,eV,,,,,,,
RbGdTe$_{4}$,0.0019000000000000128,eV,,,,,,,
Sr$_{4}$In$_{2}$N,0.0,eV,,,,,,,
ZrSiTe,0.0,eV,,,,,,,
GdGe,0.009100000000000108,eV,,,,,,,
GdSn$_{3}$,0.04779999999999962,eV,,,,,,,
Pu$_{5}$Ru$_{3}$,0.0,eV,,,,,,,
Ce$_{3}$Ga,0.0,eV,,,,,,,
PbO,1.4694999999999991,eV,,,,,,,
LuNiGe,0.0,eV,,,,,,,
GdAl$_{2}$,0.059500000000000774,eV,,,,,,,
USeS,0.0,eV,,,,,,,
La$_{2}$Be$_{2}$GeO$_{7}$,4.114299999999999,eV,,,,,,,
CeZnGe,0.0,eV,,,,,,,
Hf$_{2}$CuSb$_{3}$,0.03200000000000003,eV,,,,,,,
MgInNi$_{2}$,0.0,eV,,,,,,,
Tm$_{5}$Mg$_{24}$,0.0,eV,,,,,,,
Nd$_{2}$Ru$_{2}$O$_{7}$,0.0,eV,,,,,,,
Na$_{2}$MgAlF$_{7}$,6.6697999999999995,eV,,,,,,,
In$_{4}$Se$_{3}$,0.16659999999999986,eV,,,,,,,
PuSb,0.0,eV,,,,,,,
CeMgPt,0.0,eV,,,,,,,
Sc(MnGe)$_{6}$,0.0,eV,,,,,,,
NpSi,0.0,eV,,,,,,,
La(CoGe)$_{2}$,0.0,eV,,,,,,,
HfB$_{2}$,0.0,eV,,,,,,,
VAs,0.0,eV,,,,,,,
As$_{2}$PbS$_{4}$,0.7649999999999997,eV,,,,,,,
BaGdAuSe$_{3}$,0.9171,eV,,,,,,,
YCuSb$_{2}$,0.0,eV,,,,,,,
Sr$_{3}$PbO,0.0,eV,,,,,,,
Gd$_{2}$MgGe$_{2}$,0.0,eV,,,,,,,
YInCu$_{2}$,0.0,eV,,,,,,,
Pu$_{2}$SnPt$_{2}$,0.0,eV,,,,,,,
CeBPd$_{3}$,0.0,eV,,,,,,,
Sc$_{2}$Cu$_{2}$Ge$_{4}$O$_{13}$,0.19099999999999984,eV,,,,,,,
PrC$_{2}$,0.0,eV,,,,,,,
Dy$_{2}$Ti$_{3}$Si$_{4}$,0.0,eV,,,,,,,
ZrSi$_{2}$Cu,0.19459999999999944,eV,,,,,,,
Al$_{8}$Cr$_{5}$,0.0,eV,,,,,,,
Co$_{2}$CuGe$_{2}$,0.0,eV,,,,,,,
Ba$_{2}$InO$_{3}$F,2.0466999999999995,eV,,,,,,,
LaGeBO$_{5}$,4.0105,eV,,,,,,,
Gd$_{3}$PbC,0.0,eV,,,,,,,
LuTiGe,0.0,eV,,,,,,,
NdIr$_{3}$,0.0,eV,,,,,,,
CeIn$_{5}$Co,0.0,eV,,,,,,,
Sn$_{2}$Pt,0.0,eV,,,,,,,
TiFe$_{2}$Sn,0.049599999999999866,eV,,,,,,,
K$_{4}$BaU$_{3}$O$_{12}$,1.9861000000000002,eV,,,,,,,
GdTl,0.0,eV,,,,,,,
LuMnSi,0.0,eV,,,,,,,
CaIn$_{2}$Cu,0.0,eV,,,,,,,
Li$_{3}$CuO$_{3}$,1.1780000000000002,eV,,,,,,,
ZnCo$_{2}$Ge,0.011999999999999567,eV,,,,,,,
LaCoGe$_{3}$,0.0,eV,,,,,,,
In$_{2}$Ag,0.0,eV,,,,,,,
Sr$_{2}$PrO$_{4}$,0.0,eV,,,,,,,
Ce$_{4}$S$_{3}$O$_{4}$,0.0,eV,,,,,,,
SmIn$_{3}$,0.0,eV,,,,,,,
La(NiGe)$_{2}$,0.0,eV,,,,,,,
TiCuSn,0.0,eV,,,,,,,
TbB$_{4}$,0.0,eV,,,,,,,
TlIn(PSe$_{3}$)$_{2}$,1.4263000000000003,eV,,,,,,,
DyGeRu,0.0,eV,,,,,,,
Pa$_{3}$Sb$_{4}$,0.0,eV,,,,,,,
SmGa$_{5}$Co,0.0,eV,,,,,,,
Ce$_{2}$In$_{8}$Co,0.0,eV,,,,,,,
Sb$_{2}$O$_{3}$,3.3407999999999998,eV,,,,,,,
BaTiO$_{3}$,0.014399999999999746,eV,,,,,,,
SrIn$_{4}$Pd,0.0,eV,,,,,,,
La$_{6}$UO$_{12}$,1.9808999999999992,eV,,,,,,,
Ba$_{2}$GdNbO$_{6}$,2.6514,eV,,,,,,,
EuIn$_{2}$Ni,0.0,eV,,,,,,,
Pd,0.0,eV,,,,,,,
LaP$_{7}$,0.8670999999999998,eV,,,,,,,
CuSe$_{2}$,0.0,eV,,,,,,,
Nd(NiSn)$_{2}$,0.0,eV,,,,,,,
SrSnPt,0.0,eV,,,,,,,
FeAg$_{2}$SnS$_{4}$,0.0,eV,,,,,,,
Ce(Al$_{2}$Cu)$_{4}$,0.010200000000001097,eV,,,,,,,
Zr$_{2}$InC,0.0,eV,,,,,,,
ZnPb$_{2}$F$_{6}$,3.9227999999999996,eV,,,,,,,
MnNiGe,0.0,eV,,,,,,,
NaPr$_{2}$OsO$_{6}$,0.6706000000000003,eV,,,,,,,
LaTl$_{3}$,0.0,eV,,,,,,,
DyCuGe,0.0,eV,,,,,,,
NaSbO$_{3}$,1.4933999999999998,eV,,,,,,,
As$_{2}$PbO$_{6}$,2.1358,eV,,,,,,,
K$_{3}$Ir(NO$_{2}$)$_{6}$,0.0,eV,,,,,,,
Cu$_{3}$Sb,0,eV,,,,,,,
NdCuSb$_{2}$,0.13510000000000044,eV,,,,,,,
DySn$_{2}$,0.0,eV,,,,,,,
CeGeIr,0.0,eV,,,,,,,
PrIn,0.0,eV,,,,,,,
LaCuSn,0.0,eV,,,,,,,
Mn(GaS$_{2}$)$_{2}$,1.1795,eV,,,,,,,
Pu$_{2}$Co,0.0,eV,,,,,,,
FeP$_{2}$,0.4338999999999995,eV,,,,,,,
U$_{2}$InCo$_{2}$,0.0,eV,,,,,,,
SnIr,0.0,eV,,,,,,,
CaPb,0.0,eV,,,,,,,
Gd$_{3}$S$_{4}$,0.0,eV,,,,,,,
PrInRh,0.0,eV,,,,,,,
Eu(CoP)$_{2}$,0.0,eV,,,,,,,
Cu$_{10}$Sb$_{3}$,0.0,eV,,,,,,,
EuBPd$_{3}$,0.16059999999999963,eV,,,,,,,
EuSr$_{2}$Cu$_{3}$(PbO$_{4}$)$_{2}$,0.08960000000000079,eV,,,,,,,
TlInS$_{2}$,0.4748000000000001,eV,,,,,,,
ErGeRh,0.0,eV,,,,,,,
La(NiAs)$_{2}$,0.0,eV,,,,,,,
Pu(SiPd)$_{2}$,0.001900000000000901,eV,,,,,,,
U(Ni$_{2}$P)$_{2}$,0.0,eV,,,,,,,
InP$_{3}$,0.0,eV,,,,,,,
CeBPt$_{4}$,0.0,eV,,,,,,,
TbGe$_{2}$Pt,0.0,eV,,,,,,,
NpSb,0.0,eV,,,,,,,
GdAlPd,0.0058000000000006935,eV,,,,,,,
ZrMnGe,0.03480000000000061,eV,,,,,,,
V$_{3}$Ir,0.0,eV,,,,,,,
GePt$_{2}$,0.0,eV,,,,,,,
Li$_{3}$Ce$_{5}$Ge$_{4}$,6.00000000000378E-4,eV,,,,,,,
DyGa$_{2}$,0.031700000000000284,eV,,,,,,,
CO$_{2}$,6.6332,eV,,,,,,,
Na$_{5}$OsO$_{6}$,0.0,eV,,,,,,,
GdTiGe,0.010000000000000675,eV,,,,,,,
Eu,0.0,eV,,,,,,,
LaCuO$_{2}$,2.5161999999999995,eV,,,,,,,
SrIn$_{2}$,0.0,eV,,,,,,,
TbMn$_{2}$,0.0,eV,,,,,,,
USe$_{2}$,0.0,eV,,,,,,,
Pb$_{2}$O$_{3}$,1.0687000000000006,eV,,,,,,,
CaPbO$_{3}$,0.9331999999999998,eV,,,,,,,
FeAs$_{2}$,0.2801999999999998,eV,,,,,,,
Yb(As$_{2}$Rh$_{3}$)$_{2}$,0.0907,eV,,,,,,,
GdRh$_{2}$,0.027899999999999814,eV,,,,,,,
LaTiGe$_{3}$,0.0,eV,,,,,,,
MnSn$_{2}$,0.0,eV,,,,,,,
Sr$_{2}$SmTa(CuO$_{4}$)$_{2}$,0.0,eV,,,,,,,
Na$_{4}$PbO$_{4}$,1.2998000000000003,eV,,,,,,,
GdFe$_{2}$,0.010899999999999466,eV,,,,,,,
Np$_{2}$InNi$_{2}$,0.0,eV,,,,,,,
EuTa$_{2}$O$_{6}$,0.0,eV,,,,,,,
Eu(FeP)$_{2}$,0.0,eV,,,,,,,
Pt$_{3}$PbC,0.0,eV,,,,,,,
Ba$_{2}$PbO$_{4}$,1.2232000000000003,eV,,,,,,,
Yb$_{5}$Si$_{4}$,0.0,eV,,,,,,,
Gd(PdO$_{2}$)$_{2}$,0.14559999999999995,eV,,,,,,,
TmInPt,0.0,eV,,,,,,,
RbAg$_{3}$S$_{2}$,0.4160999999999999,eV,,,,,,,
Li$_{2}$NdSb$_{2}$,0.0,eV,,,,,,,
CaIn$_{4}$Pd,0.0,eV,,,,,,,
Th$_{2}$NiB$_{10}$,0.0,eV,,,,,,,
UP,0.0,eV,,,,,,,
Ce(GePt)$_{2}$,0.005600000000000271,eV,,,,,,,
EuAl$_{2}$,0.0,eV,,,,,,,
Eu(SiPd)$_{2}$,0.0,eV,,,,,,,
Tl$_{3}$Ir(NO$_{2}$)$_{6}$,0.0,eV,,,,,,,
Cr$_{2}$AgTe$_{4}$,0.0,eV,,,,,,,
PtO$_{2}$,0.0,eV,,,,,,,
LiHg,0.0,eV,,,,,,,
UFeSi,0.0,eV,,,,,,,
DyGe,0.0,eV,,,,,,,
GdSi$_{2}$,0.013999999999999346,eV,,,,,,,
NpAsSe,0.0,eV,,,,,,,
Eu(MnAs)$_{2}$,0.0,eV,,,,,,,
TbBaO$_{3}$,0.0,eV,,,,,,,
HoTl$_{3}$,0.0,eV,,,,,,,
Pu$_{3}$Al,0.0,eV,,,,,,,
YIn$_{3}$,0.0,eV,,,,,,,
InHg,0.15310000000000024,eV,,,,,,,
NbCrN,0.0,eV,,,,,,,
KCN,5.021599999999999,eV,,,,,,,
Na$_{2}$Ca$_{2}$Ta$_{3}$O$_{10}$,0.0,eV,,,,,,,
BaPb,0.0,eV,,,,,,,
Dy(GePt)$_{2}$,0.0,eV,,,,,,,
LaInPd,0.0,eV,,,,,,,
Mn$_{3}$Ge,0.0,eV,,,,,,,
Rb$_{2}$FeCu(CN)$_{6}$,0.0,eV,,,,,,,
NbCrP,0.0,eV,,,,,,,
TiGaCo$_{2}$,0.0,eV,,,,,,,
Zr$_{2}$Ni$_{2}$Sn,0.0,eV,,,,,,,
ZrMnP,0.0,eV,,,,,,,
GdMg$_{2}$Ag,0.0012999999999996348,eV,,,,,,,
Nd$_{3}$Ge$_{5}$,0,eV,,,,,,,
LiCa$_{2}$Si$_{3}$,0.0,eV,,,,,,,
Eu(AlGe)$_{2}$,0.0,eV,,,,,,,
In(MoSe)$_{3}$,0.0,eV,,,,,,,
TbCaF$_{6}$,0.0,eV,,,,,,,
CoSn$_{2}$,0.0,eV,,,,,,,
BaGdCuSe$_{3}$,1.0211999999999999,eV,,,,,,,
PbO$_{2}$,0.0,eV,,,,,,,
Ce$_{3}$SnC,0.0,eV,,,,,,,
PrNi$_{2}$,0.0,eV,,,,,,,
Mn$_{2}$GaCo,0.0,eV,,,,,,,
InAgS$_{2}$,0.10819999999999919,eV,,,,,,,
Th$_{2}$S$_{3}$,0.0,eV,,,,,,,
Mn$_{3}$GaC,0.0,eV,,,,,,,
Ce$_{2}$InPd$_{2}$,0.0,eV,,,,,,,
Np(SiAu)$_{2}$,0.0,eV,,,,,,,
Ce$_{2}$O$_{3}$,0.0,eV,,,,,,,
CeCrSe$_{3}$,0.0,eV,,,,,,,
Pu(SiNi)$_{2}$,0.003200000000001424,eV,,,,,,,
ErMnGe,0.019199999999999662,eV,,,,,,,
Ce(CuGe)$_{2}$,0.00140000000000029,eV,,,,,,,
Ni$_{3}$Sn$_{4}$,0.015100000000000335,eV,,,,,,,
Sc$_{2}$InC,0.0,eV,,,,,,,
DyPb$_{3}$,0.0,eV,,,,,,,
Pu(FeSi)$_{2}$,0.0,eV,,,,,,,
CeBO$_{3}$,0.005600000000000271,eV,,,,,,,
AlFe$_{3}$,0.00509999999999966,eV,,,,,,,
Mn$_{3}$GeC,0.0,eV,,,,,,,
Ce$_{2}$C$_{3}$,0.0,eV,,,,,,,
GdRh$_{3}$C,0.0,eV,,,,,,,
USiRh,0.0,eV,,,,,,,
LuNiSb,0.21590000000000042,eV,,,,,,,
PrRuO$_{3}$,0.0,eV,,,,,,,
LiInSe$_{2}$,1.5731,eV,,,,,,,
GdCuAs$_{2}$,0.04320000000000057,eV,,,,,,,
SrMnGe,0.0,eV,,,,,,,
LaRu$_{2}$,0.0,eV,,,,,,,
LaZnSn,0.0,eV,,,,,,,
Si$_{3}$Ru$_{2}$,0.3774000000000015,eV,,,,,,,
HfMnSi,0.0,eV,,,,,,,
DyCo$_{3}$B$_{2}$,0.0,eV,,,,,,,
CeO$_{2}$,1.8647,eV,,,,,,,
LaMnGe,0.0,eV,,,,,,,
NbTe$_{4}$,0.0,eV,,,,,,,
Cr$_{2}$GaC,0.0,eV,,,,,,,
PPbS$_{3}$,2.2992,eV,,,,,,,
TaTe$_{4}$,0.0,eV,,,,,,,
NdZnSn,0.0,eV,,,,,,,
MgSn$_{4}$Ru,0.0,eV,,,,,,,
MnCuP,0.0,eV,,,,,,,
Yb$_{2}$Cu$_{2}$O$_{5}$,0.9219999999999999,eV,,,,,,,
ThIn$_{3}$,0.0,eV,,,,,,,
MnAsRh,0.0,eV,,,,,,,
Sm(Sn$_{3}$Ru$_{2}$)$_{2}$,0.0,eV,,,,,,,
Eu$_{2}$ReO$_{5}$,0.0,eV,,,,,,,
Ag$_{2}$PbO$_{2}$,1.3770000000000002,eV,,,,,,,
Mn$_{3}$Si,0.0,eV,,,,,,,
BaPr$_{2}$CuO$_{5}$,0.4272,eV,,,,,,,
Yb$_{2}$MnS$_{4}$,0.0,eV,,,,,,,
UGa$_{3}$,0.0,eV,,,,,,,
EuPS$_{3}$,0.7445000000000004,eV,,,,,,,
CsUCuTe$_{3}$,0.0,eV,,,,,,,
CaInRh,0.0,eV,,,,,,,
Sr$_{2}$NbInO$_{6}$,3.3866,eV,,,,,,,
GdInPd,0.00709999999999944,eV,,,,,,,
CePb$_{3}$,0.0,eV,,,,,,,
UGeIr,0.0,eV,,,,,,,
NaMnP,0.0,eV,,,,,,,
MnGaNi$_{2}$,0.0,eV,,,,,,,
Sm$_{3}$InC,0.0,eV,,,,,,,
PuOF,0.0,eV,,,,,,,
CeInPd$_{2}$,0.0,eV,,,,,,,
CaMnSn,0.0,eV,,,,,,,
Li$_{2}$BPt$_{3}$,0.0,eV,,,,,,,
CaMnGe,0.0,eV,,,,,,,
DyIn$_{3}$,0.0,eV,,,,,,,
CoNiSn,0.0,eV,,,,,,,
Th(FeGe)$_{2}$,0.0,eV,,,,,,,
YbIn$_{2}$Pd,0.0,eV,,,,,,,
Mg$_{4}$P$_{6}$Rh$_{7}$,0.0,eV,,,,,,,
RbMnAs,0.0,eV,,,,,,,
ZrPbS$_{3}$,1.2455000000000003,eV,,,,,,,
CeFeSi,0.0,eV,,,,,,,
Mn$_{4}$Ge$_{6}$Ir$_{7}$,0.0,eV,,,,,,,
Dy(Fe$_{2}$Ge)$_{2}$,0.0,eV,,,,,,,
Yb$_{2}$SrO$_{4}$,0.0,eV,,,,,,,
MnCoP,0.0,eV,,,,,,,
HfBe$_{5}$,0.0,eV,,,,,,,
PdS,0.0,eV,,,,,,,
Na$_{2}$Te$_{2}$O$_{7}$,0.7000000000000002,eV,,,,,,,
TiSiCu,0.0,eV,,,,,,,
K$_{3}$InP$_{2}$,0.7887,eV,,,,,,,
AsPd$_{3}$Pb$_{2}$,0.0,eV,,,,,,,
GdIn$_{3}$,0.0,eV,,,,,,,
PrTl$_{3}$,0.0,eV,,,,,,,
U(SiIr)$_{2}$,0.0,eV,,,,,,,
Mn(GaSe$_{2}$)$_{2}$,0.8566,eV,,,,,,,
Pu$_{3}$Pb,0.0,eV,,,,,,,
CaIn,0.0,eV,,,,,,,
Tb(FeGe)$_{2}$,0.0,eV,,,,,,,
LiIn$_{2}$Pt,0.0,eV,,,,,,,
MnGaPt,0.0,eV,,,,,,,
HfCo,0.0,eV,,,,,,,
UWC$_{2}$,0.0,eV,,,,,,,
LaAgSb$_{2}$,0.0,eV,,,,,,,
GdPt$_{3}$,0.04499999999999993,eV,,,,,,,
Ca$_{3}$PbO,0.0,eV,,,,,,,
CeGeAu,0.0,eV,,,,,,,
U$_{2}$F$_{9}$,0.0,eV,,,,,,,
EuRbO$_{2}$,0.0,eV,,,,,,,
Fe(BMo)$_{2}$,0.0,eV,,,,,,,
NbInSe$_{2}$,0.0,eV,,,,,,,
Be$_{2}$Nb,0.0,eV,,,,,,,
DySiIr,0.0,eV,,,,,,,
CsPbF$_{3}$,3.3389999999999995,eV,,,,,,,
NaPt$_{3}$O$_{4}$,0.0,eV,,,,,,,
CeCO$_{3}$F,0.17120000000000068,eV,,,,,,,
NaInS$_{2}$,1.8377,eV,,,,,,,
TbCuPb,0.0,eV,,,,,,,
YPb$_{3}$,0.0,eV,,,,,,,
Np(SiRh)$_{2}$,0.0,eV,,,,,,,
SmGePt,0.0,eV,,,,,,,
CeIn$_{5}$Rh,0.0,eV,,,,,,,
EuYbSi$_{4}$N$_{7}$,0.0,eV,,,,,,,
In$_{2}$Co,0.0,eV,,,,,,,
SmIn,0.0,eV,,,,,,,
RuS$_{2}$,0.6675999999999993,eV,,,,,,,
EuP,0.0,eV,,,,,,,
La$_{2}$Pd$_{2}$Pb,0.0,eV,,,,,,,
LaIn$_{4}$Ni,0.0,eV,,,,,,,
RhN$_{2}$,0.0,eV,,,,,,,
InAs,0.0,eV,,,,,,,
Np(CuGe)$_{2}$,0.0065000000000008384,eV,,,,,,,
TmSiRu,0.0,eV,,,,,,,
EuPb$_{3}$,0.0,eV,,,,,,,
Be$_{2}$Cu,0.0,eV,,,,,,,
LiInSe$_{2}$,1.6234,eV,,,,,,,
FeSe,0.1294000000000004,eV,,,,,,,
NpSnIr,0.0,eV,,,,,,,
Ti$_{2}$InC,0.0,eV,,,,,,,
PPbSe$_{3}$,1.6562999999999994,eV,,,,,,,
Mn$_{2}$B,0.0,eV,,,,,,,
InTe,0.0,eV,,,,,,,
UGeRh,0.0,eV,,,,,,,
La(CuGe)$_{2}$,0.0,eV,,,,,,,
Ba$_{2}$LuCu$_{3}$O$_{7}$,0.0,eV,,,,,,,
Ti$_{3}$InC,0.0,eV,,,,,,,
U(PS$_{3}$)$_{2}$,0.0,eV,,,,,,,
TiP$_{2}$,0.0,eV,,,,,,,
U$_{3}$Se$_{4}$,0.0,eV,,,,,,,
InAgO$_{2}$,0.2413000000000003,eV,,,,,,,
Ni$_{3}$N,0.0,eV,,,,,,,
Mn$_{3}$SiIr,0.0,eV,,,,,,,
CuSbSe$_{2}$,0.6351999999999993,eV,,,,,,,
GdMgPd,0.0026000000000001577,eV,,,,,,,
PrMnSi,0.0,eV,,,,,,,
MnNbP,0.0,eV,,,,,,,
USn$_{3}$,0.0,eV,,,,,,,
ZrPbO$_{3}$,2.6739,eV,,,,,,,
CeAl$_{3}$Ni$_{2}$,0.0,eV,,,,,,,
Ti$_{2}$InNi$_{2}$,0.0,eV,,,,,,,
EuN,0.0,eV,,,,,,,
U(MnGe)$_{2}$,0.0,eV,,,,,,,
Yb$_{2}$Sn$_{2}$O$_{7}$,0.0,eV,,,,,,,
NaAuO$_{2}$,1.0651000000000002,eV,,,,,,,
Fe$_{3}$Ge,0.0,eV,,,,,,,
GdCoC,0.03310000000000013,eV,,,,,,,
TbInCo$_{2}$,0.0,eV,,,,,,,
NdSnPt,0.0,eV,,,,,,,
DyCoC,0.0,eV,,,,,,,
InP,0.4679000000000002,eV,,,,,,,
Ba$_{3}$In$_{2}$O$_{6}$,0.8820000000000001,eV,,,,,,,
GdGa,0.0,eV,,,,,,,
MgMnGe,0.0,eV,,,,,,,
Ce$_{2}$CoSi$_{3}$,0.0,eV,,,,,,,
Ce$_{2}$SbO$_{2}$,0.0,eV,,,,,,,
Ce$_{2}$InPt$_{2}$,0.0,eV,,,,,,,
UInAu$_{2}$,0.0,eV,,,,,,,
PuIn$_{3}$,0.0,eV,,,,,,,
Mn$_{3}$NiN,0.0,eV,,,,,,,
LiGa$_{2}$Pt,0.0,eV,,,,,,,
K$_{3}$Rh(NO$_{2}$)$_{6}$,0.0,eV,,,,,,,
NpGe$_{3}$,0.0,eV,,,,,,,
Sm$_{3}$Ga,0.0,eV,,,,,,,
CeIn$_{3}$,0.0,eV,,,,,,,
UCuPO,0.0,eV,,,,,,,
Co$_{3}$B,0.0,eV,,,,,,,
Ho$_{2}$C(NO)$_{2}$,3.9960999999999993,eV,,,,,,,
Ce(BO$_{2}$)$_{3}$,0.19449999999999967,eV,,,,,,,
CaInAu,0.0,eV,,,,,,,
DyTh,0.0,eV,,,,,,,
Sm$_{3}$S$_{4}$,0.0,eV,,,,,,,
HoMnSi,0.0,eV,,,,,,,
HfGaPd,0.0,eV,,,,,,,
Ti$_{6}$Sn$_{5}$,0.0,eV,,,,,,,
TbSiIr,0.0,eV,,,,,,,
CeAgAs$_{2}$,0.0,eV,,,,,,,
Nd$_{3}$InC,0.0,eV,,,,,,,
EuSn$_{3}$,0.0,eV,,,,,,,
Pr$_{3}$PbC,0.0,eV,,,,,,,
Na$_{2}$CdPb,0.0,eV,,,,,,,
ScMn$_{2}$,0.0,eV,,,,,,,
PrSnPt,0.0,eV,,,,,,,
B$_{2}$Mo$_{2}$Ir,0.0,eV,,,,,,,
Sr$_{2}$InPt$_{2}$,0.0,eV,,,,,,,
EuPb,0.0,eV,,,,,,,
VAsRh,0.0,eV,,,,,,,
RbCa$_{2}$Nb$_{3}$O$_{10}$,1.4813999999999998,eV,,,,,,,
Sr(InTe$_{2}$)$_{2}$,0.8837999999999999,eV,,,,,,,
CeFe$_{2}$,0.0,eV,,,,,,,
Ce(GePt)$_{2}$,0.0,eV,,,,,,,
HfSi$_{2}$Cu,0.0,eV,,,,,,,
Lu$_{6}$UO$_{12}$,1.9482,eV,,,,,,,
Sm$_{2}$InPd$_{2}$,0.0,eV,,,,,,,
V$_{2}$Ga$_{5}$,0.0,eV,,,,,,,
InGaTe$_{2}$,0.0,eV,,,,,,,
HoZn$_{2}$,0.0,eV,,,,,,,
Ho(BC)$_{2}$,0.0,eV,,,,,,,
InN,0.0,eV,,,,,,,
U$_{7}$Te$_{12}$,0.002100000000000435,eV,,,,,,,
GdPbAu,0.0,eV,,,,,,,
SmFeB$_{4}$,0.0,eV,,,,,,,
SiRh$_{2}$,0.0,eV,,,,,,,
Ca$_{4}$In$_{2}$N,0.0,eV,,,,,,,
HoNi$_{3}$,0.006699999999999484,eV,,,,,,,
KGdTe$_{2}$,0.7134999999999998,eV,,,,,,,
KMnP,0.0032000000000000917,eV,,,,,,,
Nd$_{3}$SnC,0.0,eV,,,,,,,
MgCo$_{3}$C,0.0,eV,,,,,,,
NpSi$_{3}$,0.0,eV,,,,,,,
Fe$_{2}$As,0.0,eV,,,,,,,
LiCeGe$_{2}$,5.999999999994898E-4,eV,,,,,,,
Er$_{3}$PbC,0.0,eV,,,,,,,
Fe$_{2}$Ge,0.0,eV,,,,,,,
Ti$_{3}$In$_{4}$,0.0,eV,,,,,,,
GdSnAu,0.0033000000000003027,eV,,,,,,,
TaSiRh,0.0,eV,,,,,,,
Sr$_{2}$SmCu$_{3}$(PbO$_{4}$)$_{2}$,0.0,eV,,,,,,,
MnNi$_{2}$Sn,0.0,eV,,,,,,,
Mn$_{2}$Co$_{2}$C,0.0,eV,,,,,,,
GdIn$_{2}$Rh,0.005499999999999616,eV,,,,,,,
SnPt$_{3}$C,0.0,eV,,,,,,,
U$_{3}$Co$_{2}$Ge$_{7}$,0.0,eV,,,,,,,
Gd(MnSi)$_{2}$,0.0013999999999994017,eV,,,,,,,
CeInIr,0.0,eV,,,,,,,
Tb$_{4}$Sb$_{3}$,0.0,eV,,,,,,,
YCrB$_{4}$,0.15800000000000036,eV,,,,,,,
LaInPt,0.0,eV,,,,,,,
Ba(MgPb)$_{2}$,0.0,eV,,,,,,,
TiCoSn,0.0,eV,,,,,,,
Co$_{3}$Se$_{4}$,0.0,eV,,,,,,,
InP,0.0,eV,,,,,,,
PtPbF$_{6}$,1.9710999999999999,eV,,,,,,,
TiPbO$_{3}$,1.8160999999999996,eV,,,,,,,
BaPbO$_{3}$,0.1924999999999999,eV,,,,,,,
U$_{3}$Co$_{4}$Ge$_{7}$,0.0,eV,,,,,,,
CaPbF$_{6}$,3.4558999999999997,eV,,,,,,,
SrPrO$_{3}$,0.0,eV,,,,,,,
As$_{2}$Pd,0.0,eV,,,,,,,
Sn$_{7}$Ir$_{5}$,0.0,eV,,,,,,,
PuB$_{4}$,0.0,eV,,,,,,,
YbIn$_{3}$,0.0,eV,,,,,,,
Gd$_{2}$O$_{3}$,2.9035,eV,,,,,,,
U$_{4}$Si$_{6}$Tc$_{7}$,0.0,eV,,,,,,,
LaRuO$_{3}$,0.008000000000000007,eV,,,,,,,
MnCu$_{2}$GeS$_{4}$,0.25459999999999994,eV,,,,,,,
In$_{2}$CuO$_{4}$,0.0,eV,,,,,,,
LuTiSi,0.0,eV,,,,,,,
SrIn$_{4}$Ni,0.0,eV,,,,,,,
TlTe,0.12450000000000028,eV,,,,,,,
Er(Fe$_{2}$Ge)$_{2}$,0.0,eV,,,,,,,
MnSnPd$_{2}$,0.0,eV,,,,,,,
EuAgP,0.0,eV,,,,,,,
Pb,0.0,eV,,,,,,,
Li$_{2}$FeCu(CN)$_{6}$,0.0,eV,,,,,,,
InSe,0.4575,eV,,,,,,,
Pu$_{3}$Ga,0.0,eV,,,,,,,
La$_{3}$Ga,0.0,eV,,,,,,,
SrPbO$_{3}$,0.7933000000000003,eV,,,,,,,
ZrMo$_{2}$,0.0,eV,,,,,,,
NdNiSn,0.0,eV,,,,,,,
LaInCu$_{2}$,0.0,eV,,,,,,,
ScSiRh,0.0,eV,,,,,,,
Mg(InS$_{2}$)$_{2}$,1.7643999999999997,eV,,,,,,,
LaAs,0.0,eV,,,,,,,
Na$_{2}$CO$_{3}$,3.1421,eV,,,,,,,
Ga$_{2}$PbO$_{4}$,3.4441000000000006,eV,,,,,,,
SrIn$_{2}$Ir,0.0,eV,,,,,,,
YbGeRh,0.0,eV,,,,,,,