formula,Property Band Gap,Property Band Gap units,Property Band gap,Property Band gap units,Temperature (Property Band gap),Temperature (Property Band gap) units,Property Color,Temperature (Property Color),Temperature (Property Color) units
AlBr$_{4}$,0.0,eV,,,,,,,
NdNbO$_{4}$,3.6582,eV,,,,,,,
MgCr$_{2}$O$_{4}$,0.7034000000000002,eV,,,,,,,
LiTa$_{3}$N$_{4}$,0.0,eV,,,,,,,
NbO$_{2}$F,1.6515,eV,,,,,,,
Y$_{2}$U$_{3}$O$_{11}$,0.0,eV,,,,,,,
Sr(NdSe$_{2}$)$_{2}$,1.7524000000000002,eV,,,,,,,
Mg$_{2}$GeO$_{4}$,3.0734000000000004,eV,,,,,,,
CsU$_{2}$F$_{9}$,1.9999999999997797E-4,eV,,,,,,,
Er(SiIr)$_{2}$,0.0,eV,,,,,,,
Na$_{3}$(CoO$_{2}$)$_{4}$,0.004999999999999893,eV,,,,,,,
ZrAlCo$_{2}$,0.0,eV,,,,,,,
Co$_{2}$CuO$_{4}$,0.0,eV,,,,,,,
HoAl$_{2}$,0.0,eV,,,,,,,
Ce(Al$_{10}$Cr)$_{2}$,0.0,eV,,,,,,,
MgTa$_{2}$N$_{3}$,0.0,eV,,,,,,,
Na$_{3}$Zr$_{2}$Si$_{2}$PO$_{12}$,4.2135,eV,,,,,,,
Na$_{4}$Al$_{3}$Si$_{3}$HO$_{13}$,4.0558000000000005,eV,,,,,,,
SrLiPrTeO$_{6}$,3.3073000000000006,eV,,,,,,,
BaHgO$_{2}$,2.2727,eV,,,,,,,
CaLaTiCrO$_{6}$,2.4237,eV,,,,,,,
K$_{2}$(SO$_{2}$)$_{3}$,3.5394,eV,,,,,,,
CaTiFe(PO$_{4}$)$_{3}$,0.26459999999999995,eV,,,,,,,
CaScAlSiO$_{6}$,4.8888,eV,,,,,,,
Cd$_{2}$GeO$_{4}$,1.0893,eV,,,,,,,
KBO$_{2}$,4.1301000000000005,eV,,,,,,,
U$_{3}$Sb$_{4}$,0.0,eV,,,,,,,
Ca$_{3}$La$_{5}$Mn$_{7}$NiO$_{24}$,0.010800000000000587,eV,,,,,,,
BaLaTiCrO$_{6}$,1.3000999999999996,eV,,,,,,,
Zn$_{3}$GaB$_{6}$PO$_{12}$,4.0713,eV,,,,,,,
AgSbS$_{2}$,1.3628000000000005,eV,,,,,,,
SrLa$_{4}$TiAl$_{4}$O$_{15}$,2.0999999999999996,eV,,,,,,,
Th$_{2}$MnN$_{3}$,0.0,eV,,,,,,,
SrLaMnRuO$_{6}$,0.0,eV,,,,,,,
LiNbO$_{2}$,1.5794999999999995,eV,,,,,,,
BaLaMgRuO$_{6}$,0.3697000000000008,eV,,,,,,,
Co$_{2}$CuS$_{4}$,0.0,eV,,,,,,,
BaLaZnRuO$_{6}$,0.47740000000000027,eV,,,,,,,
NbAg$_{7}$S$_{6}$,1.1046000000000002,eV,,,,,,,
Na$_{2}$CaPO$_{4}$F,4.1045,eV,,,,,,,
CaAsAu,0.0,eV,,,,,,,
Na$_{5}$P$_{3}$O$_{10}$,4.5313,eV,,,,,,,
BaLaMgNbO$_{6}$,2.7808,eV,,,,,,,
Pd$_{16}$S$_{7}$,0.0,eV,,,,,,,
Sc$_{2}$MnS$_{4}$,0.6131000000000002,eV,,,,,,,
SmSF,1.2296999999999998,eV,,,,,,,
Ca$_{3}$Si$_{2}$O$_{7}$,4.4296,eV,,,,,,,
Mg$_{2}$PN$_{3}$,3.5371000000000006,eV,,,,,,,
Cu$_{3}$PS$_{4}$,1.0202,eV,,,,,,,
ZrSiS,0.0,eV,,,,,,,
SrLiTa$_{2}$O$_{6}$F,3.6165000000000003,eV,,,,,,,
Sm(SiNi)$_{2}$,0.0,eV,,,,,,,
CeZn$_{5}$,0.0,eV,,,,,,,
LiYF$_{4}$,7.3177,eV,,,,,,,
SrLaMn$_{2}$O$_{6}$,0.0,eV,,,,,,,
NdTiCdSbO$_{7}$,2.5106,eV,,,,,,,
TmSnPd$_{2}$,0.0,eV,,,,,,,
BaTi$_{2}$O$_{5}$,1.8301000000000003,eV,,,,,,,
ZrAlNi$_{2}$,0.0,eV,,,,,,,
Ca$_{2}$MnIrO$_{6}$,0.0,eV,,,,,,,
Ca$_{5}$P$_{3}$ClO$_{12}$,5.3781,eV,,,,,,,
SrLaTiMnO$_{6}$,0.08319999999999972,eV,,,,,,,
K$_{7}$LiSi$_{8}$,1.6927,eV,,,,,,,
ZrAl$_{3}$,0.0,eV,,,,,,,
ErInCu,0.0,eV,,,,,,,
Ti$_{2}$CuS$_{4}$,0.0,eV,,,,,,,
LiCaTa$_{2}$O$_{6}$F,3.6628999999999996,eV,,,,,,,
BaY$_{2}$O$_{4}$,3.2493,eV,,,,,,,
CaCO$_{3}$,4.999499999999999,eV,,,,,,,
CaC$_{2}$S$_{2}$(OF)$_{6}$,5.9997,eV,,,,,,,
PrPS$_{4}$,2.2769999999999997,eV,,,,,,,
CrSiH$_{12}$(OF)$_{6}$,0.0,eV,,,,,,,
KRb$_{2}$ZrOF$_{5}$,4.5842,eV,,,,,,,
AlPO$_{4}$,5.612399999999999,eV,,,,,,,
Sr$_{3}$UO$_{6}$,2.2074999999999996,eV,,,,,,,
Er(SiOs)$_{2}$,0.0,eV,,,,,,,
YbGa,0.0,eV,,,,,,,
CaUO$_{4}$,2.1516,eV,,,,,,,
LaPO$_{4}$,4.520300000000001,eV,,,,,,,
SrLaMnWO$_{6}$,2.0287999999999995,eV,,,,,,,
K$_{2}$CO$_{3}$,3.6392,eV,,,,,,,
Na$_{6}$Al$_{4}$Fe(Si$_{4}$O$_{13}$)$_{2}$,3.0733999999999995,eV,,,,,,,
NaNO,3.3842999999999996,eV,,,,,,,
NaTi$_{2}$BiO$_{6}$,2.7399,eV,,,,,,,
GdTiCdSbO$_{7}$,2.3292,eV,,,,,,,
K$_{3}$Ba$_{7}$Ti$_{10}$(O$_{9}$F)$_{3}$,0.038599999999999746,eV,,,,,,,
KCd$_{13}$,0.0,eV,,,,,,,
K$_{2}$TiF$_{6}$,4.7349,eV,,,,,,,
NaCaTaTiO$_{6}$,2.4426,eV,,,,,,,
Ce$_{2}$SO$_{2}$,0.0,eV,,,,,,,
CaHoMn$_{2}$O$_{6}$,0.04259999999999975,eV,,,,,,,
Ba$_{5}$B$_{4}$O$_{11}$,3.7594000000000003,eV,,,,,,,
K$_{2}$TaF$_{7}$,5.608499999999999,eV,,,,,,,
CsB$_{3}$O$_{5}$,5.304,eV,,,,,,,
Zr$_{2}$P$_{3}$H$_{4}$NO$_{12}$,4.2944,eV,,,,,,,
SrSiO$_{3}$,4.6251,eV,,,,,,,
ErGa$_{3}$,0.0,eV,,,,,,,
LiSbF$_{6}$,4.933400000000001,eV,,,,,,,
KCuO$_{2}$,0.8604999999999999,eV,,,,,,,
Na$_{8}$Al$_{6}$Si$_{6}$CO$_{27}$,3.2507,eV,,,,,,,
Tm(MnGe)$_{2}$,0,eV,,,,,,,
BaSm$_{4}$Si$_{3}$SeO$_{12}$,2.5404,eV,,,,,,,
BaCu$_{3}$O$_{4}$,0.0,eV,,,,,,,
BaCaLaBiO$_{6}$,2.1621,eV,,,,,,,
NdTi$_{3}$Fe(CuO$_{4}$)$_{3}$,0.021600000000000286,eV,,,,,,,
Te$_{2}$Pt,0.0,eV,,,,,,,
UMoC$_{2}$,0.0,eV,,,,,,,
PrSF,1.2541000000000002,eV,,,,,,,
TaFeO$_{4}$,2.2745,eV,,,,,,,
K$_{2}$Re$_{3}$CS$_{5}$N,1.3673999999999995,eV,,,,,,,
La(SiCu)$_{2}$,0.0,eV,,,,,,,
GaAsO$_{4}$,3.0694,eV,,,,,,,
Sm(SiCu)$_{2}$,0.0,eV,,,,,,,
LaTaO$_{4}$,3.3866,eV,,,,,,,
Y(SiPt)$_{2}$,0.0,eV,,,,,,,
SrNbFeO$_{6}$,0.0,eV,,,,,,,
NdAl$_{2}$,0.0,eV,,,,,,,
BaTaS$_{3}$,0.0,eV,,,,,,,
Li$_{2}$ZrF$_{6}$,6.477399999999999,eV,,,,,,,
Ag$_{5}$SbS$_{4}$,0.5920000000000001,eV,,,,,,,
ErPO$_{4}$,5.919600000000001,eV,,,,,,,
CaLaMnFeO$_{6}$,1.3586999999999998,eV,,,,,,,
Nd(SiNi)$_{2}$,0.0,eV,,,,,,,
ZnGeAs$_{2}$,0.0118999999999998,eV,,,,,,,
BaPdS$_{2}$,0.3844000000000003,eV,,,,,,,
Sc$_{2}$S$_{3}$,0.6433000000000004,eV,,,,,,,
Nd(SiRu)$_{2}$,0.0,eV,,,,,,,
ZnSiH$_{12}$(OF)$_{6}$,5.0995,eV,,,,,,,
Pr(SiCu)$_{2}$,0.0,eV,,,,,,,
Cs$_{2}$KZrOF$_{5}$,4.8774,eV,,,,,,,
SiNiH$_{12}$(OF)$_{6}$,5.1913,eV,,,,,,,
TlGaS$_{2}$,1.7912,eV,,,,,,,
Ba$_{10}$Ta$_{10}$(N$_{3}$O$_{7}$)$_{3}$,0.015700000000000713,eV,,,,,,,
NaHf$_{2}$(PO$_{4}$)$_{3}$,5.0443,eV,,,,,,,
LiCaPrTeO$_{6}$,3.3167,eV,,,,,,,
BaLiLaTeO$_{6}$,2.9505999999999997,eV,,,,,,,
CaTiO$_{3}$,2.3238,eV,,,,,,,
CdP$_{2}$,1.4897999999999998,eV,,,,,,,
Na$_{8}$Be$_{3}$Si$_{9}$(ClO$_{12}$)$_{2}$,3.9839,eV,,,,,,,
KZrTl$_{2}$OF$_{5}$,3.1105,eV,,,,,,,
Ca$_{2}$Nd$_{2}$Nb$_{3}$FeO$_{14}$,2.2319999999999998,eV,,,,,,,
Zr$_{2}$CoSi$_{2}$,0.0,eV,,,,,,,
Na$_{4}$Ga$_{3}$Si$_{3}$IO$_{12}$,3.7311,eV,,,,,,,
Dy$_{2}$Fe$_{14}$B,0.006999999999999673,eV,,,,,,,
DyAgTe$_{2}$,0.9018000000000006,eV,,,,,,,
TmNiSb,0.2526999999999999,eV,,,,,,,
BaLaMgTaO$_{6}$,2.9425,eV,,,,,,,
KCrS$_{2}$,1.1611999999999996,eV,,,,,,,
NaLiLa$_{2}$Ti$_{4}$O$_{12}$,1.6749,eV,,,,,,,
Rb$_{2}$Pt$_{3}$S$_{4}$,1.4507999999999996,eV,,,,,,,
LaTe$_{2}$Se,0.0,eV,,,,,,,
RbReO$_{4}$,4.1189,eV,,,,,,,
BaLaMnMoO$_{6}$,0.0,eV,,,,,,,
TmNiC$_{2}$,0,eV,,,,,,,
In$_{14}$Ga$_{3}$Pt$_{2}$O$_{8}$F$_{15}$,1.9925000000000002,eV,,,,,,,
Na$_{6}$TiMn(SiO$_{3}$)$_{6}$,2.8038,eV,,,,,,,
Sm$_{3}$S$_{3}$N,1.3056,eV,,,,,,,
Yb(AlGe)$_{2}$,0.0,eV,,,,,,,
NbCu$_{3}$Se$_{4}$,1.3604000000000003,eV,,,,,,,
ErAgSe$_{2}$,1.2832999999999997,eV,,,,,,,
NaGd$_{3}$Ti$_{2}$(SbO$_{7}$)$_{2}$,2.0437000000000003,eV,,,,,,,
Cs$_{2}$SiF$_{6}$,6.9731000000000005,eV,,,,,,,
NaDy$_{3}$Ti$_{2}$(SbO$_{7}$)$_{2}$,2.4818,eV,,,,,,,
Sr$_{6}$(RhO$_{3}$)$_{5}$,0.004699999999999704,eV,,,,,,,
NaNd$_{3}$Ti$_{2}$(SbO$_{7}$)$_{2}$,2.1497,eV,,,,,,,
U$_{2}$P$_{2}$O$_{9}$,0.22850000000000037,eV,,,,,,,
Ga$_{2}$Pd$_{5}$,0.0,eV,,,,,,,
Eu(AsRu)$_{2}$,0.0,eV,,,,,,,
CsTiCoOF$_{5}$,2.3608000000000002,eV,,,,,,,
AlPO$_{4}$,5.475,eV,,,,,,,
Na$_{3}$Sr$_{7}$Ta$_{3}$Ti$_{7}$O$_{30}$,1.7944000000000004,eV,,,,,,,
Rb$_{2}$Mn$_{3}$Se$_{4}$,0.4188000000000003,eV,,,,,,,
YbSnPd$_{2}$,0.0,eV,,,,,,,
YAl$_{3}$Ni,0.0,eV,,,,,,,
CaSc$_{2}$O$_{4}$,3.4579999999999997,eV,,,,,,,
CsBF$_{4}$,7.798399999999999,eV,,,,,,,
FeCu$_{2}$H$_{21}$(O$_{5}$F$_{4}$)$_{2}$,0.48969999999999997,eV,,,,,,,
LiNi$_{2}$P$_{4}$H$_{3}$O$_{14}$,4.3193,eV,,,,,,,
CdTe,0.5893999999999999,eV,,,,,,,
CaPrMn$_{2}$O$_{6}$,0.07220000000000049,eV,,,,,,,
Ca(NiP)$_{2}$,0.0,eV,,,,,,,
Dy(SiIr)$_{2}$,0.0,eV,,,,,,,
KGaO$_{2}$,3.0499,eV,,,,,,,
NaCoP$_{2}$HO$_{7}$,3.0988000000000007,eV,,,,,,,
KBa$_{4}$Ti$_{5}$O$_{14}$F,1.3418,eV,,,,,,,
Na$_{2}$GeS$_{3}$,2.4515000000000002,eV,,,,,,,
NaSm$_{3}$Ti$_{2}$(SbO$_{7}$)$_{2}$,2.2791,eV,,,,,,,
Er$_{2}$(NiB$_{2}$)$_{3}$,0.0,eV,,,,,,,
Sm(SiRu)$_{2}$,0.0,eV,,,,,,,
Sm(CoB)$_{2}$,0.0,eV,,,,,,,
TbZrSb,0.0,eV,,,,,,,
VCoSb,0.0,eV,,,,,,,
SrLaMnCoO$_{6}$,0.0,eV,,,,,,,
Cd(CN)$_{2}$,6.0857,eV,,,,,,,
Fe$_{3}$H$_{10}$S$_{2}$NO$_{14}$,1.8935,eV,,,,,,,
La$_{2}$SO$_{6}$,4.726399999999999,eV,,,,,,,
Sc$_{3}$AlC,0.0,eV,,,,,,,
Si$_{3}$N$_{4}$,1.8186,eV,,,,,,,
Mg$_{2}$Ge,0.16890000000000027,eV,,,,,,,
BaSrLaBiO$_{6}$,1.8712999999999997,eV,,,,,,,
TaCu$_{3}$Se$_{4}$,1.5980000000000003,eV,,,,,,,
MgCuAs,0.0,eV,,,,,,,
NaSr$_{3}$LaTi$_{5}$O$_{15}$,1.8642000000000003,eV,,,,,,,
La$_{2}$Sn$_{2}$O$_{7}$,2.6590999999999996,eV,,,,,,,
CaLaTiMnO$_{6}$,0.18399999999999928,eV,,,,,,,
Ba$_{3}$Na$_{2}$Ti$_{3}$Nb$_{2}$O$_{15}$,1.5631,eV,,,,,,,
La(FeSi)$_{2}$,0.0,eV,,,,,,,
ZnC$_{2}$S$_{2}$(OF)$_{6}$,5.5243,eV,,,,,,,
NaS,0.8685,eV,,,,,,,
Ce(SiRh)$_{2}$,0.0,eV,,,,,,,
Ni$_{2}$Mo$_{3}$N,0.0,eV,,,,,,,
SrSeO$_{4}$,3.512,eV,,,,,,,
Cu$_{3}$(PO$_{4}$)$_{2}$,0.0,eV,,,,,,,
Na$_{2}$ZnP$_{2}$O$_{7}$,4.042,eV,,,,,,,
YbPt$_{2}$,0.0,eV,,,,,,,
Ca$_{4}$IrO$_{6}$,0.0,eV,,,,,,,
Sr$_{2}$Sb$_{2}$O$_{7}$,1.3571,eV,,,,,,,
HoPO$_{4}$,5.9209,eV,,,,,,,
Ho(SiCu)$_{2}$,0.0,eV,,,,,,,
BaLaCuRuO$_{6}$,0.0,eV,,,,,,,
Li(CoGe)$_{6}$,0.0,eV,,,,,,,
Ba(AsRu)$_{2}$,0.0,eV,,,,,,,
AsSClOF$_{8}$,3.9969,eV,,,,,,,
Na$_{3}$Sr$_{3}$AlP$_{4}$,1.1233,eV,,,,,,,
ErCo$_{3}$,0.0,eV,,,,,,,
Ca$_{3}$Er$_{3}$Ge$_{2}$BO$_{13}$,3.6346,eV,,,,,,,
Tl$_{2}$SO$_{4}$,3.7965,eV,,,,,,,
Li$_{2}$Si$_{2}$O$_{5}$,5.154,eV,,,,,,,
Na$_{3}$Ti$_{2}$P$_{2}$O$_{10}$F,3.1952,eV,,,,,,,
CaCuAs,0.0,eV,,,,,,,
BaLiPrTeO$_{6}$,3.1381999999999994,eV,,,,,,,
GaPO$_{4}$,4.439100000000001,eV,,,,,,,
ErTlS$_{2}$,1.4109000000000003,eV,,,,,,,
Ba$_{2}$La$_{2}$Zn(WO$_{6}$)$_{2}$,3.0862,eV,,,,,,,
CaCN$_{2}$,3.5804,eV,,,,,,,
KUO$_{3}$,0.44540000000000024,eV,,,,,,,
BaLaTaMnO$_{6}$,0.9447999999999999,eV,,,,,,,
UP$_{2}$,0.0,eV,,,,,,,
Sc(CoSi)$_{2}$,0.0,eV,,,,,,,
CaGa$_{2}$Cu$_{3}$(SbO$_{6}$)$_{2}$,0.6444000000000001,eV,,,,,,,
RbPO$_{3}$,5.109100000000001,eV,,,,,,,
CePO$_{4}$,0.18820000000000014,eV,,,,,,,
Rb$_{2}$CO$_{3}$,3.2778,eV,,,,,,,
Nb$_{4}$GaS$_{8}$,0.0,eV,,,,,,,
LuSe,0.0,eV,,,,,,,
BaLaMgBiO$_{6}$,1.2833000000000006,eV,,,,,,,
MnSbPd,0.0,eV,,,,,,,
Th(GePd)$_{2}$,0,eV,,,,,,,
Ca$_{5}$P$_{3}$HO$_{13}$,5.1982,eV,,,,,,,
CsTiNiOF$_{5}$,3.1081,eV,,,,,,,
Ho(SiPd)$_{2}$,0,eV,,,,,,,
IrN$_{2}$,0.3178000000000001,eV,,,,,,,
Ca(MnSb)$_{2}$,0.0,eV,,,,,,,
Ga$_{2}$CoS$_{4}$,0.32379999999999987,eV,,,,,,,
Ca$_{2}$Nb$_{2}$O$_{7}$,1.4400000000000004,eV,,,,,,,
Li$_{2}$ZrO$_{3}$,3.7336,eV,,,,,,,
Sr(NO$_{3}$)$_{2}$,3.7142,eV,,,,,,,
Cr$_{3}$Os,0.0,eV,,,,,,,
Tl$_{3}$PSe$_{4}$,1.4779,eV,,,,,,,
Ca$_{3}$Ti$_{2}$O$_{7}$,2.5214,eV,,,,,,,
K$_{2}$SnH$_{2}$OF$_{6}$,3.8446999999999996,eV,,,,,,,
Nd$_{2}$Co$_{14}$B,0.0,eV,,,,,,,
TaNO,1.9319999999999995,eV,,,,,,,
USiO$_{4}$,0.0,eV,,,,,,,
MnRh,0.0,eV,,,,,,,
NaTaO$_{3}$,2.2603,eV,,,,,,,
LiCo$_{2}$P$_{4}$H$_{3}$O$_{14}$,2.7545,eV,,,,,,,
DySi$_{2}$Ni,0.0,eV,,,,,,,
Na$_{5}$GeP$_{3}$,1.0631000000000004,eV,,,,,,,
BaLa$_{2}$TiCr$_{2}$O$_{9}$,1.0070999999999994,eV,,,,,,,
Na$_{8}$Al$_{6}$Si$_{6}$SO$_{28}$,3.8864999999999994,eV,,,,,,,
HoNiSb,0.29329999999999945,eV,,,,,,,
CaNdTiMnO$_{6}$,0.22529999999999983,eV,,,,,,,
ZnSnP$_{2}$,0.7042999999999999,eV,,,,,,,
La(SiPt)$_{2}$,0.0,eV,,,,,,,
Dy(SiRu)$_{2}$,0.0,eV,,,,,,,
LiAlPO$_{4}$F,5.9117999999999995,eV,,,,,,,
Ca$_{2}$SiO$_{4}$,4.6785,eV,,,,,,,
CrAgS$_{2}$,0.7286999999999999,eV,,,,,,,
BaNdNiSbO$_{6}$,2.9544,eV,,,,,,,
RbTiZnOF$_{5}$,3.1708,eV,,,,,,,
Na$_{3}$ScF$_{6}$,6.993,eV,,,,,,,
Ge$_{2}$N$_{2}$O,2.6029,eV,,,,,,,
Dy$_{6}$FeSb$_{2}$,0.0,eV,,,,,,,
YbB$_{6}$,0.0,eV,,,,,,,
CaSnO$_{3}$,2.9435,eV,,,,,,,
SrLaNbZnO$_{6}$,2.3728999999999996,eV,,,,,,,
Ca$_{3}$AsN,0.8940000000000001,eV,,,,,,,
Tm$_{9}$(FeGe)$_{10}$,0,eV,,,,,,,
Zn(CrS$_{2}$)$_{2}$,0.0,eV,,,,,,,
Tm(NiGe)$_{2}$,0.0,eV,,,,,,,
NdFeSi$_{2}$,0.0,eV,,,,,,,
Ag$_{3}$PO$_{4}$,0.1745000000000001,eV,,,,,,,
Na$_{2}$S$_{2}$O$_{3}$,4.0606,eV,,,,,,,
Ta,0.0,eV,,,,,,,
ScPO$_{4}$,4.5188999999999995,eV,,,,,,,
BaAl$_{2}$O$_{4}$,4.0969,eV,,,,,,,
BaYMnCoO$_{5}$,0.5815000000000001,eV,,,,,,,
Cs$_{2}$RbZrOF$_{5}$,4.7017,eV,,,,,,,
Nd$_{6}$Al$_{7}$Si$_{5}$N$_{3}$O$_{25}$,3.3797999999999995,eV,,,,,,,
BaLaTaZnO$_{6}$,2.5384,eV,,,,,,,
UAs$_{2}$Pd,0.0,eV,,,,,,,
USb$_{2}$Pd,0.0,eV,,,,,,,
K$_{4}$Gd$_{2}$C$_{3}$O$_{9}$F$_{4}$,2.7175000000000002,eV,,,,,,,
K$_{3}$Sn$_{2}$S$_{3}$ClO$_{12}$,3.9354,eV,,,,,,,
DyNi$_{2}$,0.0,eV,,,,,,,
Sm$_{2}$CuO$_{4}$,0.0,eV,,,,,,,
Nb$_{3}$Co$_{4}$B$_{7}$,0.0,eV,,,,,,,
Lu$_{2}$Fe$_{14}$B,0.0,eV,,,,,,,
Na$_{8}$Al$_{6}$Si$_{6}$SO$_{28}$,4.1847,eV,,,,,,,
Ca$_{10}$Si$_{3}$S$_{3}$(ClO$_{12}$)$_{2}$,4.5001999999999995,eV,,,,,,,
Ca$_{2}$AlH$_{10}$ClO$_{8}$,4.3268,eV,,,,,,,
K$_{2}$NaTiOF$_{5}$,3.9585999999999997,eV,,,,,,,
BeS,3.1434999999999995,eV,,,,,,,
Cs$_{2}$ZrTlOF$_{5}$,4.1425,eV,,,,,,,
Na$_{3}$PO$_{4}$,4.1727,eV,,,,,,,
NaCaNb$_{2}$O$_{6}$F,2.7833,eV,,,,,,,
LiCrS$_{2}$,0.6463000000000001,eV,,,,,,,
K$_{2}$MnH$_{4}$(Cl$_{2}$O)$_{2}$,3.6477,eV,,,,,,,
Nd(CoSi)$_{2}$,0.0,eV,,,,,,,
Nd(AgGe)$_{2}$,0.0,eV,,,,,,,
Na$_{6}$Al$_{4}$Fe(Si$_{4}$O$_{13}$)$_{2}$,3.1590000000000003,eV,,,,,,,
GePd$_{2}$,0.0,eV,,,,,,,
Sc$_{3}$TlC,0.0,eV,,,,,,,
Ba$_{2}$Ce$_{3}$Si$_{3}$O$_{12}$F,8.999999999996788E-4,eV,,,,,,,
KMnSb,0.0,eV,,,,,,,
BaZnO$_{2}$,2.2704999999999997,eV,,,,,,,
MnFeAs,0,eV,,,,,,,
CoH$_{22}$N$_{7}$(ClO$_{2}$)$_{4}$,0.9141999999999999,eV,,,,,,,
RbCeTe$_{2}$,0.1255999999999995,eV,,,,,,,
U$_{3}$(CuGe)$_{4}$,0.001300000000000523,eV,,,,,,,
SrAl$_{3}$P$_{2}$(HO$_{2}$)$_{7}$,4.9878,eV,,,,,,,
TbLi$_{2}$F$_{6}$,0.3354999999999999,eV,,,,,,,
NaZnSb,0.0,eV,,,,,,,
YCoC$_{2}$,0.0,eV,,,,,,,
Hg(CO$_{2}$)$_{2}$,2.6357,eV,,,,,,,
GdB$_{2}$,0.0,eV,,,,,,,
Tb(SiPd)$_{2}$,0.0,eV,,,,,,,
Na$_{4}$BeAlSi$_{4}$ClO$_{12}$,4.276599999999999,eV,,,,,,,
Pr(Sb$_{3}$Os)$_{4}$,0.0,eV,,,,,,,
SnPS$_{3}$,1.8210000000000002,eV,,,,,,,
V(CrC)$_{2}$,0.0,eV,,,,,,,
Ba(CuS)$_{2}$,0.5059999999999993,eV,,,,,,,
Na$_{8}$BeAl$_{4}$Si$_{7}$(ClO$_{12}$)$_{2}$,4.1385,eV,,,,,,,
Ca(CoGe)$_{2}$,0.0,eV,,,,,,,
NaYTiNbO$_{6}$F,2.7187000000000006,eV,,,,,,,
CoSe,0.0,eV,,,,,,,
BeAlB,0.0,eV,,,,,,,
K$_{2}$S$_{2}$O$_{5}$,3.1804,eV,,,,,,,
KAsF$_{6}$,4.9494,eV,,,,,,,
FeAs,0.0,eV,,,,,,,
EuTaO$_{4}$,0.0,eV,,,,,,,
SrTeO$_{4}$,2.2328,eV,,,,,,,
Sm(SiPd)$_{2}$,0,eV,,,,,,,
NaSi$_{2}$Pd$_{3}$,0.0,eV,,,,,,,
CaGe$_{2}$O$_{5}$,2.6889999999999996,eV,,,,,,,
PrMg$_{3}$,0.0,eV,,,,,,,
GaCuO$_{2}$,0.9824999999999999,eV,,,,,,,
KCu$_{2}$H$_{20}$N$_{3}$(Cl$_{2}$O)$_{4}$,0.8303,eV,,,,,,,
LaSi$_{2}$Pt,0.0,eV,,,,,,,
Ho$_{2}$CdSe$_{4}$,0.6088,eV,,,,,,,
Sr$_{2}$SnO$_{4}$,2.6454999999999997,eV,,,,,,,
TbNiGe$_{2}$,0.0,eV,,,,,,,
Er$_{2}$Si$_{3}$Rh,0.0,eV,,,,,,,
NaPrTiNbO$_{6}$F,2.811,eV,,,,,,,
Ho(NiGe)$_{2}$,0.0,eV,,,,,,,
U(GePd)$_{2}$,0.0,eV,,,,,,,
Tm(MnSn)$_{6}$,0.0,eV,,,,,,,
NaGdTiNbO$_{6}$F,2.3813000000000004,eV,,,,,,,
HoInPd,0.0,eV,,,,,,,
TiO$_{2}$,2.2392999999999996,eV,,,,,,,
Yb$_{2}$Si$_{2}$O$_{7}$,0.0,eV,,,,,,,
Nd(NiGe)$_{2}$,0.0,eV,,,,,,,
Na$_{2}$Li$_{2}$Al$_{3}$Si$_{3}$ClO$_{12}$,5.1381000000000006,eV,,,,,,,
SmSnAu,0.0,eV,,,,,,,
EuNaTiNbO$_{6}$F,0.0020000000000000018,eV,,,,,,,
Er(SiCu)$_{2}$,0.0,eV,,,,,,,
NaCeTiNbO$_{6}$F,4.999999999997229E-4,eV,,,,,,,
Na$_{3}$Al$_{3}$Si$_{3}$AgBrO$_{12}$,3.3352999999999997,eV,,,,,,,
BaIrO$_{3}$,0,eV,,,,,,,
PrAgAs$_{2}$,0.0,eV,,,,,,,
BaGa$_{4}$S$_{7}$,2.5800000000000005,eV,,,,,,,
Ca$_{3}$Ti$_{2}$AlSi$_{3}$O$_{14}$F,3.0113000000000003,eV,,,,,,,
HoAgSn,0.0,eV,,,,,,,
Ca$_{3}$TiAl$_{2}$Si$_{3}$O$_{13}$F$_{2}$,3.0993,eV,,,,,,,
NaNdTiNbO$_{6}$F,2.7862999999999998,eV,,,,,,,
Sr(NiAs)$_{2}$,0.0,eV,,,,,,,
Na$_{8}$BeAl$_{4}$Si$_{7}$(BrO$_{12}$)$_{2}$,3.8838999999999997,eV,,,,,,,
MgSiO$_{3}$,4.5304,eV,,,,,,,
Pr(CoB)$_{2}$,0.0,eV,,,,,,,
Nd(SiPd)$_{2}$,0.0,eV,,,,,,,
Tm$_{2}$CdS$_{4}$,1.1768,eV,,,,,,,
Zr(SO$_{4}$)$_{2}$,3.5633,eV,,,,,,,
KErS$_{2}$,2.3715,eV,,,,,,,
Sm(CoGe)$_{2}$,0.0,eV,,,,,,,
LaPPd,0.0,eV,,,,,,,
Dy(GeRh)$_{2}$,0.0,eV,,,,,,,
Cr$_{2}$CdS$_{4}$,0.41780000000000017,eV,,,,,,,
SrAu$_{2}$,0.0,eV,,,,,,,
TbPO$_{4}$,5.8675,eV,,,,,,,
Pr(P$_{3}$Ru)$_{4}$,0.0,eV,,,,,,,
KNbO$_{3}$,1.4759999999999998,eV,,,,,,,
Sr(MnAs)$_{2}$,0.0,eV,,,,,,,
HoTaO$_{4}$,4.050800000000001,eV,,,,,,,
ThSn$_{3}$,0.0,eV,,,,,,,
La$_{2}$(SeO$_{3}$)$_{3}$,3.5120000000000005,eV,,,,,,,
K$_{2}$B$_{2}$S$_{7}$,2.5119000000000002,eV,,,,,,,
TbAl$_{4}$Ni,0.0,eV,,,,,,,
Tl(NiSe)$_{2}$,0.0,eV,,,,,,,
YTiO$_{3}$,0.0,eV,,,,,,,
CaSiO$_{3}$,3.527899999999999,eV,,,,,,,
Sr$_{2}$PdO$_{3}$,0.22710000000000008,eV,,,,,,,
SmRh,0.0,eV,,,,,,,
NaCdF$_{3}$,3.513,eV,,,,,,,
K$_{4}$Ta$_{2}$S$_{11}$,1.6604999999999999,eV,,,,,,,
Cu$_{2}$Ag$_{2}$O$_{3}$,0.0,eV,,,,,,,
Ca$_{3}$Sn$_{13}$Rh$_{4}$,0.0,eV,,,,,,,
NbGaCo$_{2}$,0.0,eV,,,,,,,
Na$_{2}$PtC$_{2}$,0.3662000000000001,eV,,,,,,,
Cu$_{2}$NiSn,0.0,eV,,,,,,,
SbPdSe,0.0,eV,,,,,,,
MgAu,0.0,eV,,,,,,,
Sr(AsPd)$_{2}$,0.0,eV,,,,,,,
Nd(CuO$_{2}$)$_{2}$,0.0,eV,,,,,,,
UAsS,0.0,eV,,,,,,,
BaAlF$_{5}$,7.2832,eV,,,,,,,
TbK$_{2}$F$_{6}$,0.0,eV,,,,,,,
Nd$_{2}$S$_{3}$,0.7595999999999998,eV,,,,,,,
YB$_{2}$Ru$_{3}$,0.0,eV,,,,,,,
Nd$_{2}$Fe$_{17}$N$_{3}$,0.0,eV,,,,,,,
Nb$_{2}$CS$_{2}$,0.0,eV,,,,,,,
CdCO$_{3}$,2.6226000000000003,eV,,,,,,,
Cu$_{2}$SO$_{5}$,0,eV,,,,,,,
SrZrO$_{3}$,3.6203,eV,,,,,,,
MgSiO$_{3}$,4.642499999999999,eV,,,,,,,
Cs$_{4}$U$_{5}$O$_{17}$,1.5343,eV,,,,,,,
Pr$_{2}$Sn$_{2}$O$_{7}$,2.6358000000000006,eV,,,,,,,
TbScGe,0.0,eV,,,,,,,
Ba(NO$_{3}$)$_{2}$,3.6154,eV,,,,,,,
Si$_{2}$N$_{2}$O,5.177900000000001,eV,,,,,,,
La(CoP)$_{2}$,0.0,eV,,,,,,,
Sr(AsRu)$_{2}$,0.0,eV,,,,,,,
Rb$_{3}$AuO,0.2056,eV,,,,,,,
CaSO$_{4}$,5.9393,eV,,,,,,,
Sm$_{2}$Zr$_{2}$O$_{7}$,3.0741,eV,,,,,,,
Cu(RhO$_{2}$)$_{2}$,0.0,eV,,,,,,,
Rb$_{2}$Te,1.8842999999999999,eV,,,,,,,
Yb(Al$_{2}$Mo)$_{2}$,0.0,eV,,,,,,,
La$_{4}$Se$_{3}$O$_{4}$,1.3261000000000003,eV,,,,,,,
Th(SiRh)$_{2}$,0.0,eV,,,,,,,
Ho(CoGe)$_{2}$,0.0,eV,,,,,,,
Ho$_{6}$FeSb$_{2}$,0.0,eV,,,,,,,
Al$_{2}$(SO$_{4}$)$_{3}$,6.0272,eV,,,,,,,
NaNbO$_{3}$,1.5604000000000002,eV,,,,,,,
RhPb,0.0,eV,,,,,,,
LaTaO$_{4}$,3.4680000000000004,eV,,,,,,,
La$_{2}$Ti$_{2}$O$_{7}$,2.746600000000001,eV,,,,,,,
Ta$_{2}$Pt$_{3}$Se$_{8}$,0.6803000000000003,eV,,,,,,,
Li$_{4}$SeO$_{5}$,2.4442,eV,,,,,,,
CaSiO$_{3}$,4.726,eV,,,,,,,
CaSiO$_{3}$,4.8369,eV,,,,,,,
CaAu$_{2}$,0.0,eV,,,,,,,
Ag$_{3}$AsS$_{3}$,1.1736,eV,,,,,,,
TbAlO$_{3}$,5.598200000000001,eV,,,,,,,
NdTe$_{2}$Se,0.0,eV,,,,,,,
CaSnO$_{3}$,2.3301,eV,,,,,,,
Pr(SiNi)$_{2}$,0.0,eV,,,,,,,
Ca(CuGe)$_{2}$,0.0,eV,,,,,,,
Hg$_{3}$AsO$_{4}$,0.49249999999999994,eV,,,,,,,
Sr$_{3}$(GaO$_{3}$)$_{2}$,3.5262,eV,,,,,,,
Y$_{3}$AlC,0.0,eV,,,,,,,
Tl$_{2}$SeO$_{4}$,3.2312000000000003,eV,,,,,,,
NdCo$_{2}$,0.0,eV,,,,,,,
UPS,0,eV,,,,,,,
Cd(GaS$_{2}$)$_{2}$,2.1141000000000005,eV,,,,,,,
TlNO$_{2}$,1.6205000000000003,eV,,,,,,,
CeCo$_{3}$B$_{2}$,0.0,eV,,,,,,,
Th(MnSi)$_{2}$,0.0,eV,,,,,,,
Ce$_{2}$Fe$_{14}$B,0.0,eV,,,,,,,
Cr$_{3}$Pt,0.0,eV,,,,,,,
Tb(SiNi)$_{2}$,0.0,eV,,,,,,,
CuSbS$_{2}$,0.7533000000000003,eV,,,,,,,
Tm(SiNi)$_{2}$,0,eV,,,,,,,
ScAlO$_{3}$,4.591900000000001,eV,,,,,,,
BMo$_{2}$C,0.0,eV,,,,,,,
Ba(CuSe)$_{2}$,0.48629999999999995,eV,,,,,,,
V$_{4}$GaS$_{8}$,0.0,eV,,,,,,,
Tl(CoSe)$_{2}$,0.0,eV,,,,,,,
HoSiCu,0.0,eV,,,,,,,
CaSiPt,0.0,eV,,,,,,,
Ca$_{2}$SiO$_{4}$,4.199400000000001,eV,,,,,,,
NaSbO$_{3}$,2.7012,eV,,,,,,,
AgAsSe$_{2}$,0.0,eV,,,,,,,
Ba(PRu)$_{2}$,0.0,eV,,,,,,,
Er(MnGe)$_{2}$,0.0,eV,,,,,,,
Sr(FeAs)$_{2}$,0.0,eV,,,,,,,
Fe$_{5}$Si$_{3}$,0.0,eV,,,,,,,
MnCo$_{2}$Si,0.0,eV,,,,,,,
YbNaS$_{2}$,0.0,eV,,,,,,,
KLiTe,2.4134,eV,,,,,,,
Si$_{2}$N$_{2}$O,4.924799999999999,eV,,,,,,,
MgAlSi,0.0,eV,,,,,,,
NbB$_{2}$,0.0,eV,,,,,,,
ZrNbP,0.0,eV,,,,,,,
Ta$_{6}$Si$_{7}$Ni$_{16}$,0,eV,,,,,,,
La$_{3}$AlN,0.0,eV,,,,,,,
ErInPd,0.0,eV,,,,,,,
DyNiSb,0.3132999999999999,eV,,,,,,,
La$_{2}$SO$_{2}$,3.0609,eV,,,,,,,
Ho$_{2}$Ga$_{8}$Co,0.0,eV,,,,,,,
NaNbO$_{3}$,2.8299000000000003,eV,,,,,,,
Ag$_{3}$SbS$_{3}$,0.9527999999999999,eV,,,,,,,
KPrO$_{2}$,3.6626000000000003,eV,,,,,,,
CoAs$_{3}$,0.0,eV,,,,,,,
Y(CuGe)$_{2}$,0.0,eV,,,,,,,
Tb(CuGe)$_{2}$,0.0,eV,,,,,,,
ZnGeP$_{2}$,1.1667,eV,,,,,,,
Li$_{8}$SnO$_{6}$,3.8134000000000006,eV,,,,,,,
K$_{2}$SO$_{4}$,5.2088,eV,,,,,,,
Cd$_{2}$SiO$_{4}$,1.7277,eV,,,,,,,
NaNO$_{3}$,2.9553,eV,,,,,,,
Na$_{2}$SiO$_{3}$,3.8657000000000004,eV,,,,,,,
NaCO$_{2}$,3.3888,eV,,,,,,,
PrGaO$_{3}$,3.3909,eV,,,,,,,
ScNi$_{2}$Sn,0.0,eV,,,,,,,
Ce(SiNi)$_{2}$,0.0,eV,,,,,,,
TaSnS$_{2}$,0.0,eV,,,,,,,
Ho(CuGe)$_{2}$,0.0,eV,,,,,,,
NaGa$_{4}$,0.0,eV,,,,,,,
NaCuO$_{2}$,0.4914000000000003,eV,,,,,,,
Ba$_{2}$CoS$_{3}$,0.0,eV,,,,,,,
La$_{2}$TeO$_{2}$,2.0286999999999997,eV,,,,,,,
SrSiN$_{2}$,2.9695,eV,,,,,,,
SrHfO$_{3}$,3.7293,eV,,,,,,,
ErInCu$_{2}$,0.0,eV,,,,,,,
Ca(AsO$_{3}$)$_{2}$,3.2948000000000004,eV,,,,,,,