formula,Property Band Gap,Property Band Gap units,Property Band gap,Property Band gap units,Temperature (Property Band gap),Temperature (Property Band gap) units,Property Color,Temperature (Property Color),Temperature (Property Color) units
V$_{2}$Co$_{3}$O$_{8}$,1.741,eV,,,,,,,
Ni$_{2}$Hg$_{2}$OF$_{6}$,0.9556,eV,,,,,,,
CaV$_{2}$O$_{4}$,0.9624000000000006,eV,,,,,,,
Ni$_{3}$B$_{7}$IO$_{13}$,2.3700000000000006,eV,,,,,,,
CsPbI$_{3}$,2.5199,eV,,,,,,,
U$_{2}$CoO$_{6}$,0.3182999999999998,eV,,,,,,,
Ni(NO$_{3}$)$_{2}$,3.395,eV,,,,,,,
V$_{2}$MoO$_{8}$,0.7757000000000001,eV,,,,,,,
Cs$_{2}$LiCr(CN)$_{6}$,1.7163,eV,,,,,,,
CsHg(NO$_{2}$)$_{3}$,0.0,eV,,,,,,,
TlPF$_{6}$,6.3698,eV,,,,,,,
Ti$_{3}$Mn$_{3}$O,0.004100000000000215,eV,,,,,,,
Ti$_{3}$Co$_{3}$O,0.011800000000000033,eV,,,,,,,
Ti$_{3}$Ni$_{3}$O,0.016000000000000014,eV,,,,,,,
Rb$_{6}$O,0.0,eV,,,,,,,
Tm$_{8}$Ga$_{3}$Co,0.025000000000000355,eV,,,,,,,
Yb$_{2}$WO$_{6}$,0.5056,eV,,,,,,,
Cu$_{3}$(AsO$_{4}$)$_{2}$,0.05400000000000027,eV,,,,,,,
KNa$_{3}$Al$_{4}$(SiO$_{4}$)$_{4}$,3.1136999999999997,eV,,,,,,,
Ba$_{2}$CaMgAl$_{2}$F$_{14}$,7.1835,eV,,,,,,,
Na$_{6}$Mg$_{2}$C$_{4}$SO$_{16}$,3.7182000000000004,eV,,,,,,,
Ca$_{3}$Si(ClO$_{2}$)$_{2}$,4.3804,eV,,,,,,,
VP$_{2}$H$_{4}$O$_{9}$,2.6242,eV,,,,,,,
Fe$_{2}$PO$_{4}$F,3.4341000000000004,eV,,,,,,,
AgSbO$_{3}$,0.08709999999999996,eV,,,,,,,
KTh$_{2}$(PO$_{4}$)$_{3}$,4.5918,eV,,,,,,,
La$_{3}$InS$_{6}$,1.1154000000000002,eV,,,,,,,
La$_{3}$Re$_{2}$O$_{9}$,0.21030000000000015,eV,,,,,,,
Eu(BO$_{2}$)$_{2}$,0.4830999999999994,eV,,,,,,,
Cs$_{2}$AgI$_{3}$,2.6311,eV,,,,,,,
As$_{2}$P$_{2}$S$_{7}$,2.6386,eV,,,,,,,
YCl,0.0,eV,,,,,,,
Na$_{3}$PH$_{16}$(SO$_{2}$)$_{4}$,2.8701,eV,,,,,,,
CsCo(CO)$_{4}$,3.8385,eV,,,,,,,
Y$_{4}$Al$_{2}$O$_{9}$,4.3268,eV,,,,,,,
B$_{2}$PdO$_{4}$,0.7786,eV,,,,,,,
CdC$_{2}$(SN)$_{2}$,3.2981000000000003,eV,,,,,,,
ThI$_{3}$,0.0,eV,,,,,,,
YAlGeO$_{5}$,3.811,eV,,,,,,,
As$_{3}$Ir,0.7872000000000003,eV,,,,,,,
Eu$_{3}$BrO$_{4}$,0.007199999999999873,eV,,,,,,,
CaP$_{2}$H$_{20}$C$_{4}$(N$_{2}$O$_{3}$)$_{4}$,5.135599999999999,eV,,,,,,,
CsCuF$_{4}$,1.5224,eV,,,,,,,
CrTe$_{3}$,0.18849999999999945,eV,,,,,,,
Ba$_{3}$SnP$_{3}$,0.8862999999999999,eV,,,,,,,
NbTeI$_{3}$,0.45389999999999997,eV,,,,,,,
Hg$_{2}$AsF$_{6}$,0.7378999999999999,eV,,,,,,,
UPCl$_{10}$,0.6319999999999999,eV,,,,,,,
CoHgC$_{4}$(SN)$_{4}$,0.7969,eV,,,,,,,
Pb$_{5}$(IF$_{4}$)$_{2}$,2.9883999999999995,eV,,,,,,,
Ti(TlS)$_{4}$,2.4818999999999996,eV,,,,,,,
Ti(TlSe)$_{4}$,2.1544,eV,,,,,,,
KDy$_{2}$Cl$_{7}$,4.5535,eV,,,,,,,
SeBr,1.7372999999999998,eV,,,,,,,
Na$_{2}$Li$_{3}$GaO$_{4}$,3.2395,eV,,,,,,,
LiReO$_{4}$,4.0225,eV,,,,,,,
Ba$_{3}$SrNb$_{2}$O$_{9}$,3.4284,eV,,,,,,,
Ba$_{3}$SrTa$_{2}$O$_{9}$,4.0225,eV,,,,,,,
Na$_{2}$Sr(PO$_{3}$)$_{4}$,5.3329,eV,,,,,,,
LaH$_{18}$C$_{3}$S$_{3}$(O$_{2}$F)$_{9}$,5.3933,eV,,,,,,,
LuH$_{18}$C$_{3}$S$_{3}$(O$_{2}$F)$_{9}$,5.7735,eV,,,,,,,
YH$_{18}$C$_{3}$S$_{3}$(O$_{2}$F)$_{9}$,5.9427,eV,,,,,,,
Cs$_{2}$TeI$_{6}$,1.3877,eV,,,,,,,
Zr$_{3}$V$_{3}$O,0.0033000000000003027,eV,,,,,,,
KLa(PO$_{3}$)$_{4}$,4.8922,eV,,,,,,,
Ni(ClO$_{4}$)$_{2}$,3.8331,eV,,,,,,,
K$_{4}$WO$_{5}$,3.2323,eV,,,,,,,
Bi$_{5}$IO$_{7}$,2.4210000000000003,eV,,,,,,,
CsHSO$_{4}$,5.2778,eV,,,,,,,
VP$_{3}$(HO$_{5}$)$_{2}$,2.2192,eV,,,,,,,
NaLiMo(H$_{2}$O$_{3}$)$_{2}$,4.5257,eV,,,,,,,
Nd$_{2}$Ni$_{7}$P$_{4}$,0.0,eV,,,,,,,
Cs$_{2}$FeO$_{4}$,1.6677,eV,,,,,,,
Na$_{2}$Li$_{3}$CoO$_{4}$,1.4597,eV,,,,,,,
BaNi$_{9}$As$_{5}$,0.0,eV,,,,,,,
NaMo$_{6}$Cl$_{13}$,2.3917,eV,,,,,,,
Rb$_{5}$Nb$_{3}$OF$_{18}$,3.9847,eV,,,,,,,
NdGeBO$_{5}$,3.9922,eV,,,,,,,
FeTeCl$_{7}$,1.2702,eV,,,,,,,
FeTeBr$_{7}$,1.0596,eV,,,,,,,
Cs$_{2}$CuO$_{2}$,0.014600000000000168,eV,,,,,,,
Ta$_{3}$Sb,0.0,eV,,,,,,,
SmCo$_{3}$B$_{2}$,0.0,eV,,,,,,,
K$_{3}$As$_{11}$,1.4670999999999998,eV,,,,,,,
LiInI$_{4}$,2.2465,eV,,,,,,,
KNa$_{2}$FeO$_{3}$,2.179,eV,,,,,,,
YbCu(WO$_{4}$)$_{2}$,0.07479999999999976,eV,,,,,,,
CsH$_{5}$O$_{3}$,4.5517,eV,,,,,,,
Li$_{2}$Ni$_{12}$P$_{7}$,0.0,eV,,,,,,,
TiI$_{4}$,1.0867,eV,,,,,,,
Cs$_{3}$Sb$_{2}$I$_{9}$,1.5431000000000001,eV,,,,,,,
ScH$_{13}$Cl$_{2}$O$_{7}$,4.9256,eV,,,,,,,
SbAsPd$_{5}$,0.0,eV,,,,,,,
MnCr$_{2}$O$_{4}$,2.3724000000000003,eV,,,,,,,
CsTmP$_{4}$(H$_{2}$O$_{3}$)$_{6}$,5.4054,eV,,,,,,,
Ca$_{3}$SiH$_{30}$CSO$_{25}$,4.4162,eV,,,,,,,
CaMg$_{3}$Si$_{3}$O$_{10}$,3.4088000000000003,eV,,,,,,,
Fe$_{2}$P$_{2}$H$_{9}$NO$_{11}$,2.5987,eV,,,,,,,
Te$_{7}$As$_{5}$I,0.3624999999999998,eV,,,,,,,
CsUN$_{3}$O$_{11}$,2.4395000000000002,eV,,,,,,,
CsCuO,1.1227,eV,,,,,,,
U(MoO$_{4}$)$_{2}$,0.0,eV,,,,,,,
Y$_{2}$Be$_{2}$GeO$_{7}$,4.540100000000001,eV,,,,,,,
NdAg(PO$_{3}$)$_{4}$,3.7001,eV,,,,,,,
CsYO$_{2}$,2.8477,eV,,,,,,,
ZrAlPd$_{2}$,0.0,eV,,,,,,,
Sr$_{7}$Nb$_{6}$O$_{21}$,0.0,eV,,,,,,,
Eu(ErS$_{2}$)$_{2}$,0.29440000000000044,eV,,,,,,,
SiI$_{2}$,2.2811,eV,,,,,,,
Cs$_{2}$Se$_{5}$,1.0176999999999998,eV,,,,,,,
Rb$_{4}$Re$_{6}$S$_{13}$,1.3428,eV,,,,,,,
Rb$_{2}$(ReSe$_{2}$)$_{3}$,1.0461,eV,,,,,,,
K$_{2}$(ReSe$_{2}$)$_{3}$,1.2263000000000002,eV,,,,,,,
Ca$_{3}$GaAs$_{3}$,0.33299999999999974,eV,,,,,,,
Mg$_{2}$B$_{4}$Ru$_{5}$,0.0,eV,,,,,,,
HgNO$_{2}$,2.0622,eV,,,,,,,
Ta$_{2}$NiSe$_{5}$,0.0,eV,,,,,,,
KZrP$_{2}$HO$_{8}$,4.1955,eV,,,,,,,
SmSI,2.4395000000000002,eV,,,,,,,
NaMg$_{2}$H$_{3}$(SO$_{4}$)$_{2}$,4.898,eV,,,,,,,
KPH$_{5}$C$_{2}$S$_{2}$(NO)$_{3}$,3.4045,eV,,,,,,,
Cs$_{3}$V$_{2}$Cl$_{9}$,0.0,eV,,,,,,,
CuAs$_{4}$(H$_{5}$O$_{8}$)$_{2}$,0.8247,eV,,,,,,,
Ce(SeO$_{3}$)$_{2}$,1.2671,eV,,,,,,,
Nb$_{2}$Hg$_{3}$S(O$_{2}$F$_{5}$)$_{2}$,2.3509,eV,,,,,,,
Ta$_{2}$Hg$_{3}$S(O$_{2}$F$_{5}$)$_{2}$,2.4414,eV,,,,,,,
CsUNbO$_{6}$,2.1254,eV,,,,,,,
Zr$_{3}$Pb(O$_{2}$F$_{3}$)$_{2}$,2.8390000000000004,eV,,,,,,,
HoH$_{18}$C$_{3}$S$_{3}$(O$_{2}$F)$_{9}$,5.9498,eV,,,,,,,
Sc$_{6}$C$_{2}$I$_{11}$,0.01540000000000008,eV,,,,,,,
Nb$_{2}$Se$_{9}$,0.7637,eV,,,,,,,
Cd$_{2}$Si(P$_{2}$O$_{7}$)$_{2}$,4.0752,eV,,,,,,,
AlGaCl$_{4}$,4.2218,eV,,,,,,,
ZrI$_{4}$,2.0575,eV,,,,,,,
Cs$_{3}$P$_{7}$,2.3466000000000005,eV,,,,,,,
Sr$_{2}$RhF$_{7}$,1.9751,eV,,,,,,,
V$_{2}$Cu$_{3}$H$_{24}$(OF)$_{12}$,0.002799999999999969,eV,,,,,,,
MnFeH$_{4}$O$_{2}$F$_{5}$,1.9457999999999998,eV,,,,,,,
Y$_{6}$Ni$_{20}$P$_{13}$,0.0,eV,,,,,,,
Ce$_{2}$Sn$_{5}$,0.0,eV,,,,,,,
TeAuBr$_{8}$,0.7993,eV,,,,,,,
Tl$_{3}$(FeS$_{2}$)$_{2}$,0.0,eV,,,,,,,
K$_{3}$IrCl$_{6}$,1.9930000000000003,eV,,,,,,,
CrP(HO)$_{5}$,2.8008,eV,,,,,,,
Ni$_{3}$(AsO$_{4}$)$_{2}$,2.1053999999999995,eV,,,,,,,
Ge$_{2}$C$_{2}$(SF$_{2}$)$_{3}$,3.3624,eV,,,,,,,
Ge$_{2}$C$_{2}$(SeF$_{2}$)$_{3}$,2.4208,eV,,,,,,,
Cu$_{4}$Se$_{3}$O$_{10}$,0.0,eV,,,,,,,
KUVO$_{6}$,1.9806,eV,,,,,,,
Cu$_{4}$Bi$_{7}$S$_{12}$,0.0,eV,,,,,,,
BaMn$_{4}$O$_{8}$,0.008500000000000174,eV,,,,,,,
MnAl$_{2}$P$_{2}$(HO)$_{18}$,3.9536999999999995,eV,,,,,,,
Al$_{2}$Si$_{2}$H$_{4}$O$_{9}$,4.9053,eV,,,,,,,
VS$_{4}$,0.9396,eV,,,,,,,
Ge$_{4}$PbO$_{9}$,3.1907,eV,,,,,,,
EuCd(BO$_{2}$)$_{5}$,0.0,eV,,,,,,,
Nb$_{3}$SI$_{7}$,0.5787,eV,,,,,,,
Ba$_{2}$Mg$_{3}$F$_{10}$,6.8919999999999995,eV,,,,,,,
Hg$_{9}$(AsO$_{4}$)$_{4}$,1.7612999999999999,eV,,,,,,,
RbHo(PO$_{3}$)$_{4}$,5.772500000000001,eV,,,,,,,
RbTm(PO$_{3}$)$_{4}$,5.4715,eV,,,,,,,
K$_{3}$Cr(HO)$_{6}$,3.191,eV,,,,,,,
Sc$_{7}$CoI$_{12}$,0.24110000000000031,eV,,,,,,,
CsV$_{2}$P$_{5}$O$_{16}$,0.005300000000000082,eV,,,,,,,
GdVO$_{3}$,0.0,eV,,,,,,,
Te$_{3}$Pt$_{2}$,0.0,eV,,,,,,,
Ta$_{2}$NiSe$_{7}$,0.0,eV,,,,,,,
MnH$_{10}$SO$_{9}$,3.8814,eV,,,,,,,
Al$_{8}$C$_{3}$N$_{4}$,0.1880999999999995,eV,,,,,,,
P$_{4}$Se$_{3}$,2.1599999999999997,eV,,,,,,,
Cs$_{2}$LiVO$_{4}$,3.9955,eV,,,,,,,
Hg$_{7}$Cl$_{2}$O$_{3}$,0.9253,eV,,,,,,,
Fe(SbO$_{3}$)$_{2}$,0.0,eV,,,,,,,
Ce$_{2}$Fe$_{12}$P$_{7}$,0.0,eV,,,,,,,
TlCuPO$_{4}$,0.008199999999999985,eV,,,,,,,
TlCuAsO$_{4}$,0.008000000000000007,eV,,,,,,,
As$_{2}$S$_{3}$(NF$_{6}$)$_{2}$,2.2041,eV,,,,,,,
Cs(MoO$_{3}$)$_{3}$,0.0,eV,,,,,,,
KS$_{2}$O$_{3}$,3.7769,eV,,,,,,,
BaHo$_{2}$CoO$_{5}$,1.8403999999999998,eV,,,,,,,
GdP$_{2}$H$_{9}$O$_{10}$,2.8792,eV,,,,,,,
BaH$_{2}$N$_{2}$O$_{5}$,2.3958,eV,,,,,,,
CsBrF$_{6}$,4.0158,eV,,,,,,,
Cs$_{2}$K$_{4}$Fe$_{2}$O$_{5}$,1.5864999999999998,eV,,,,,,,
Na$_{5}$HfAs$_{3}$,0.9022000000000001,eV,,,,,,,
KTi$_{2}$(PO$_{4}$)$_{3}$,2.5455,eV,,,,,,,
Sb$_{3}$O$_{2}$F$_{5}$,3.7776999999999994,eV,,,,,,,
CeVO$_{4}$,0.3341000000000003,eV,,,,,,,
Nd$_{2}$NiO$_{4}$,1.3812999999999995,eV,,,,,,,
LaSiAs$_{3}$,0.0,eV,,,,,,,
VSeO$_{4}$,1.8885999999999998,eV,,,,,,,
SbBr$_{5}$F$_{6}$,1.7102,eV,,,,,,,
VAs$_{2}$H$_{4}$O$_{9}$,2.1392,eV,,,,,,,
GaNi$_{2}$BO$_{5}$,3.4943999999999997,eV,,,,,,,
LiGe$_{2}$(PO$_{4}$)$_{3}$,3.385,eV,,,,,,,
BaV$_{2}$(P$_{2}$O$_{7}$)$_{2}$,1.9275000000000002,eV,,,,,,,
Cs$_{2}$U(Cl$_{2}$O)$_{2}$,2.3217,eV,,,,,,,
YbCaInSe$_{4}$,0.0,eV,,,,,,,
YbCaInS$_{4}$,0.0,eV,,,,,,,
BaLaGaO$_{4}$,3.9475,eV,,,,,,,
BaNdGaO$_{4}$,3.7329999999999997,eV,,,,,,,
KZr$_{2}$(AsO$_{4}$)$_{3}$,3.996,eV,,,,,,,
InGaBr$_{4}$,2.9288,eV,,,,,,,
Th(TeO$_{3}$)$_{2}$,3.6292,eV,,,,,,,
Co$_{3}$P$_{2}$(H$_{2}$O$_{5}$)$_{2}$,2.8116000000000003,eV,,,,,,,
Y$_{2}$S$_{3}$,1.4880000000000004,eV,,,,,,,
Na$_{3}$MoN$_{3}$,1.4075,eV,,,,,,,
Pr$_{2}$NiO$_{4}$,1.3359999999999994,eV,,,,,,,
SrNi$_{9}$P$_{5}$,0.0931999999999995,eV,,,,,,,
Co$_{3}$H$_{2}$Se$_{3}$O$_{10}$,2.486,eV,,,,,,,
Fe$_{2}$(SeO$_{4}$)$_{3}$,2.2573000000000003,eV,,,,,,,
KHfH$_{2}$OF$_{5}$,6.6561,eV,,,,,,,
Zr$_{4}$Cd(PO$_{4}$)$_{6}$,3.7527,eV,,,,,,,
CoH$_{4}$SeO$_{5}$,2.7489000000000003,eV,,,,,,,
NaMo$_{3}$P$_{3}$O$_{16}$,1.7417999999999998,eV,,,,,,,
CaGaGe,0.0,eV,,,,,,,
Ge$_{3}$(Te$_{3}$As)$_{2}$,0.3445999999999998,eV,,,,,,,
FeSnH$_{12}$(OF)$_{6}$,2.0402,eV,,,,,,,
KTi$_{3}$Si$_{2}$P$_{6}$O$_{25}$,0.0,eV,,,,,,,
CsTi$_{3}$Si$_{2}$P$_{6}$O$_{25}$,0.0,eV,,,,,,,
Sr$_{2}$NdGaCu$_{2}$O$_{7}$,0.0,eV,,,,,,,
Sr$_{2}$ErGaCu$_{2}$O$_{7}$,0.0,eV,,,,,,,
Sr$_{2}$HoGaCu$_{2}$O$_{7}$,0.0,eV,,,,,,,
TbSr$_{2}$GaCu$_{2}$O$_{7}$,0.0,eV,,,,,,,
Sr$_{2}$SmGaCu$_{2}$O$_{7}$,0.0,eV,,,,,,,
Sr$_{2}$PrGaCu$_{2}$O$_{7}$,0.0,eV,,,,,,,
Sr$_{2}$LaGaCu$_{2}$O$_{7}$,0.0,eV,,,,,,,
As$_{2}$Se$_{2}$S(NF$_{6}$)$_{2}$,2.2391,eV,,,,,,,
Yb$_{2}$BaNiO$_{5}$,0.0,eV,,,,,,,
AlPO$_{4}$,5.6739999999999995,eV,,,,,,,
SrH$_{9}$ClO$_{5}$,4.6187000000000005,eV,,,,,,,
PtF$_{5}$,0.0,eV,,,,,,,
Er$_{2}$Au$_{5}$F$_{21}$,1.7014999999999998,eV,,,,,,,
Tb$_{2}$Au$_{5}$F$_{21}$,1.6782000000000001,eV,,,,,,,
Ho$_{2}$Au$_{5}$F$_{21}$,1.6397999999999997,eV,,,,,,,
P$_{4}$S$_{3}$I$_{2}$,2.2079,eV,,,,,,,
K$_{2}$(TcS$_{2}$)$_{3}$,1.032,eV,,,,,,,
K$_{2}$(TcSe$_{2}$)$_{3}$,0.9540000000000002,eV,,,,,,,
Rb$_{2}$(TcSe$_{2}$)$_{3}$,0.9081999999999999,eV,,,,,,,
K$_{2}$RuNCl$_{5}$O,1.7947,eV,,,,,,,
EuLiH$_{3}$,0.0,eV,,,,,,,
SrCd(PO$_{3}$)$_{4}$,4.4041,eV,,,,,,,
Tl$_{4}$V$_{2}$O$_{7}$,2.6066000000000003,eV,,,,,,,
KTa$_{3}$CuO$_{9}$,0.0,eV,,,,,,,
CdH$_{4}$Br$_{3}$N,2.5461,eV,,,,,,,
Ba$_{6}$Co$_{25}$S$_{27}$,0.034399999999999764,eV,,,,,,,
CsBiS$_{2}$,1.7469,eV,,,,,,,
KSnS$_{4}$,1.4453,eV,,,,,,,
RbSnS$_{4}$,1.4604,eV,,,,,,,
Pu(SiAu)$_{2}$,0.0,eV,,,,,,,
Cs$_{6}$Fe$_{2}$O$_{5}$,1.5097999999999998,eV,,,,,,,
K$_{3}$NiO$_{2}$,1.5665,eV,,,,,,,
K$_{3}$NaRe$_{2}$O$_{9}$,1.8164,eV,,,,,,,
UV$_{3}$O$_{10}$,0.011500000000000288,eV,,,,,,,
NaSbS$_{2}$,0.8815999999999997,eV,,,,,,,
As$_{2}$Se$_{3}$(NF$_{6}$)$_{2}$,2.3161,eV,,,,,,,
K(Mo$_{2}$O$_{3}$)$_{2}$,0.03880000000000017,eV,,,,,,,
Hg$_{7}$(P$_{2}$Br$_{3}$)$_{2}$,1.6504999999999999,eV,,,,,,,
NaFe$_{3}$O$_{5}$,1.5608,eV,,,,,,,
RbCuSnS$_{3}$,0.13260000000000005,eV,,,,,,,
Co$_{2}$P$_{2}$H$_{4}$O$_{9}$,2.9966000000000004,eV,,,,,,,
CsYP$_{2}$O$_{7}$,5.1175,eV,,,,,,,
KH$_{5}$S$_{2}$O$_{9}$,5.4879,eV,,,,,,,
SrMo$_{3}$(PO$_{7}$)$_{2}$,1.6374999999999997,eV,,,,,,,
BaTm$_{2}$CoO$_{5}$,2.0594000000000006,eV,,,,,,,
GdCu(WO$_{4}$)$_{2}$,1.0480000000000005,eV,,,,,,,
FePH$_{4}$NO$_{4}$F,2.4328,eV,,,,,,,
BaLaCuSe$_{3}$,1.2077999999999998,eV,,,,,,,
Ca$_{2}$SiH$_{2}$O$_{5}$,4.6543,eV,,,,,,,
Mn(Bi$_{3}$O$_{5}$)$_{4}$,0.0,eV,,,,,,,
Cd(BiO$_{2}$)$_{2}$,2.7092,eV,,,,,,,
VH$_{14}$SO$_{11}$,2.5023999999999997,eV,,,,,,,
Sb$_{2}$WO$_{6}$,1.4712,eV,,,,,,,
NbTl(PO$_{4}$)$_{2}$,2.8409,eV,,,,,,,
Rb$_{2}$MnO$_{4}$,0.5128,eV,,,,,,,
ZnTe,0.0,eV,,,,,,,
K$_{3}$(FeS$_{2}$)$_{2}$,0.0,eV,,,,,,,
Rb$_{3}$(FeS$_{2}$)$_{2}$,0.0,eV,,,,,,,
CrGeTe$_{3}$,0.0,eV,,,,,,,
In$_{2}$(SO$_{4}$)$_{3}$,3.754,eV,,,,,,,
Ga$_{2}$(SO$_{4}$)$_{3}$,4.33,eV,,,,,,,
Co$_{2}$PHO$_{5}$,2.3899,eV,,,,,,,
Rb$_{2}$V$_{4}$O$_{9}$,2.3314,eV,,,,,,,
Pr$_{4}$V$_{5}$(Si$_{2}$O$_{11}$)$_{2}$,0.8928000000000003,eV,,,,,,,
KSnPO$_{5}$,3.0231000000000003,eV,,,,,,,
Ce$_{4}$Si$_{2}$Se$_{3}$O$_{7}$,0.0011999999999998678,eV,,,,,,,
SrTa$_{4}$O$_{11}$,3.5237,eV,,,,,,,
GdNi(BO$_{2}$)$_{5}$,3.1216,eV,,,,,,,
CoP$_{2}$PbO$_{7}$,2.9639,eV,,,,,,,
Sb(OF$_{3}$)$_{2}$,1.3717,eV,,,,,,,
Pt(OF$_{3}$)$_{2}$,0.0242,eV,,,,,,,
Li$_{2}$Cr(H$_{2}$O$_{3}$)$_{2}$,3.052,eV,,,,,,,
NaCo$_{3}$P$_{3}$(HO$_{6}$)$_{2}$,2.5774000000000004,eV,,,,,,,
NaCo$_{3}$As$_{3}$(HO$_{6}$)$_{2}$,2.2805,eV,,,,,,,
BaCeC$_{2}$O$_{6}$F,0.27060000000000084,eV,,,,,,,
Rb$_{3}$Sc(HO)$_{6}$,3.5968,eV,,,,,,,
Rb$_{3}$Cr(HO)$_{6}$,0.3302999999999999,eV,,,,,,,
Ba$_{3}$CaRu$_{2}$O$_{9}$,0.07560000000000011,eV,,,,,,,
TlPt$_{2}$Se$_{3}$,0.4569000000000001,eV,,,,,,,
U$_{2}$Ge$_{4}$Mo$_{3}$,0.0,eV,,,,,,,
KY(PO$_{3}$)$_{4}$,5.3516,eV,,,,,,,
MnVH$_{4}$O$_{2}$F$_{5}$,2.1658,eV,,,,,,,
VInO$_{4}$,2.8615000000000004,eV,,,,,,,
U$_{4}$Tc$_{7}$Ge$_{6}$,0.027299999999998548,eV,,,,,,,
Ta$_{2}$Ni$_{3}$Se$_{8}$,0.3303999999999996,eV,,,,,,,
W$_{2}$Se$_{17}$Cl$_{12}$,0.0,eV,,,,,,,
NiMoO$_{4}$,3.0004,eV,,,,,,,
NaGdTiO$_{4}$,2.2356000000000003,eV,,,,,,,
Ca$_{2}$FeWO$_{6}$,1.7088,eV,,,,,,,
Na$_{2}$Ca(PO$_{3}$)$_{4}$,5.3703,eV,,,,,,,
Cr(PO$_{3}$)$_{3}$,3.2536000000000005,eV,,,,,,,
K$_{2}$ZnSiO$_{4}$,3.4888999999999997,eV,,,,,,,
K$_{2}$CdSiO$_{4}$,2.6403,eV,,,,,,,
BaVAsO$_{6}$,2.6697,eV,,,,,,,
CrHg$_{5}$O$_{6}$,1.0891,eV,,,,,,,
La$_{10}$Os$_{2}$I$_{15}$,0.0,eV,,,,,,,
Lu$_{2}$Fe$_{3}$Si$_{5}$,0.0,eV,,,,,,,
Sc$_{4}$Ge$_{6}$Rh$_{7}$,0.0,eV,,,,,,,
Cs$_{2}$MnO$_{4}$,0.5825,eV,,,,,,,
K$_{2}$MgB$_{12}$(H$_{2}$O$_{3}$)$_{10}$,5.5415,eV,,,,,,,
VSbO$_{4}$,0.0,eV,,,,,,,
Sr$_{2}$Li$_{3}$NbN$_{4}$,2.1148000000000002,eV,,,,,,,
Sr$_{2}$Li$_{3}$TaN$_{4}$,2.1584,eV,,,,,,,
SrZrSe$_{3}$,0.16800000000000015,eV,,,,,,,
Na$_{2}$Si$_{4}$NiO$_{10}$,3.3741,eV,,,,,,,
KSO$_{3}$,4.9636,eV,,,,,,,
ReSe$_{2}$,1.1434000000000002,eV,,,,,,,
U$_{3}$Cu$_{2}$Se$_{7}$,0.0,eV,,,,,,,
VHgO$_{3}$,2.3004,eV,,,,,,,
ZrPb$_{2}$F$_{8}$,5.2222,eV,,,,,,,
Sc$_{8}$Te$_{3}$,0.0,eV,,,,,,,
Co$_{3}$W$_{3}$N,0.0,eV,,,,,,,
Yb$_{2}$BaCoO$_{5}$,1.0893,eV,,,,,,,
La$_{3}$Co$_{3}$O$_{8}$,0.0,eV,,,,,,,
Na$_{2}$SeO$_{3}$,4.2235,eV,,,,,,,
RbLaTa$_{2}$O$_{7}$,2.2853000000000003,eV,,,,,,,
KPr(PO$_{3}$)$_{4}$,5.3491,eV,,,,,,,
Ni(SbO$_{2}$)$_{2}$,2.0339,eV,,,,,,,
Y$_{2}$Ge$_{5}$Ir$_{3}$,0.0,eV,,,,,,,
GeBr$_{2}$,2.597,eV,,,,,,,
La$_{4}$Ru$_{6}$O$_{19}$,0.0,eV,,,,,,,
La$_{4}$Os$_{6}$O$_{19}$,0.0,eV,,,,,,,
CoAgPO$_{4}$,1.7099000000000002,eV,,,,,,,
Na$_{2}$TeO$_{3}$,3.4150000000000005,eV,,,,,,,
KCu$_{3}$Te$_{2}$,0.4272,eV,,,,,,,
Ti$_{4}$Fe$_{2}$O,0.0,eV,,,,,,,
K$_{3}$Nb$_{3}$Ge$_{2}$O$_{13}$,2.3239,eV,,,,,,,
K$_{3}$Fe(CN)$_{6}$,0.0,eV,,,,,,,
CsTeF$_{5}$,4.6238,eV,,,,,,,
BaGaF$_{5}$,5.7568,eV,,,,,,,
KEr(PO$_{3}$)$_{4}$,5.4862,eV,,,,,,,
Er$_{4}$I$_{5}$,0.0,eV,,,,,,,
K$_{2}$(ReS$_{2}$)$_{3}$,1.4087000000000005,eV,,,,,,,
Nd$_{4}$Os$_{6}$O$_{19}$,0.0,eV,,,,,,,
Na$_{2}$Zr(MoO$_{4}$)$_{3}$,3.0133,eV,,,,,,,
CaMn$_{7}$O$_{12}$,0.0,eV,,,,,,,
Cs$_{3}$Ru$_{2}$Cl$_{9}$,0.4885999999999999,eV,,,,,,,
Na$_{2}$W(OF$_{2}$)$_{2}$,4.2853,eV,,,,,,,
ReSbOF$_{9}$,1.0116999999999998,eV,,,,,,,
AuCl$_{2}$,0.8978999999999999,eV,,,,,,,
BaH$_{2}$N$_{2}$O$_{5}$,2.3683,eV,,,,,,,
LiZr$_{2}$(PO$_{4}$)$_{3}$,4.1295,eV,,,,,,,
KMnH$_{2}$OF$_{4}$,1.4975999999999998,eV,,,,,,,
Nb(SeBr)$_{2}$,0.9901,eV,,,,,,,
SbP$_{2}$O$_{7}$,2.2392999999999996,eV,,,,,,,
Mn$_{2}$Cu$_{3}$H$_{24}$(OF)$_{12}$,0.6532,eV,,,,,,,
TiMnH$_{12}$(OF)$_{6}$,1.9467999999999999,eV,,,,,,,
MoP$_{2}$O$_{7}$,1.6787999999999998,eV,,,,,,,
Cd$_{2}$AsO$_{4}$F,1.6984000000000001,eV,,,,,,,
Cs$_{3}$GaAs$_{2}$,0.9704999999999997,eV,,,,,,,
K$_{3}$AlAs$_{2}$,0.4517,eV,,,,,,,
K$_{3}$AlP$_{2}$,0.6989999999999998,eV,,,,,,,
K$_{3}$GaS$_{3}$,2.7117999999999998,eV,,,,,,,
K$_{3}$GaSe$_{3}$,2.0865,eV,,,,,,,
K$_{3}$GaTe$_{3}$,1.5257,eV,,,,,,,
Na$_{7}$In$_{3}$Se$_{8}$,1.1676,eV,,,,,,,
Na$_{2}$In$_{2}$Sb$_{3}$,0.6920999999999999,eV,,,,,,,
K$_{2}$Na$_{3}$SiP$_{3}$,0.8900999999999999,eV,,,,,,,
W(CO)$_{6}$,2.9753,eV,,,,,,,
Cs$_{2}$TlCl$_{5}$,1.9854000000000003,eV,,,,,,,
K$_{6}$Na$_{3}$AlSb$_{4}$,0.7282999999999997,eV,,,,,,,
Nb$_{3}$Tl$_{2}$Br$_{9}$,1.0296,eV,,,,,,,
Ce$_{3}$Si$_{6}$N$_{11}$,0.0,eV,,,,,,,
Ba$_{3}$GaP$_{3}$,0.601,eV,,,,,,,
Ba$_{3}$DyRu$_{2}$O$_{9}$,0.0,eV,,,,,,,
Ba$_{3}$ErRu$_{2}$O$_{9}$,0.0,eV,,,,,,,
CsBa$_{2}$Br$_{5}$,4.3948,eV,,,,,,,
Si$_{2}$Ag$_{6}$O$_{7}$,0.5977999999999999,eV,,,,,,,
Al$_{3}$Pb$_{5}$F$_{19}$,5.137600000000001,eV,,,,,,,
K$_{4}$Ti$_{3}$S$_{14}$,1.1896,eV,,,,,,,
Cs$_{3}$Cr$_{2}$I$_{9}$,1.0526000000000002,eV,,,,,,,
TaPO$_{5}$,2.9698,eV,,,,,,,
Cs$_{3}$Mo$_{2}$Cl$_{9}$,1.0421,eV,,,,,,,
YbBa$_{3}$Ru$_{2}$O$_{9}$,0.14860000000000007,eV,,,,,,,
Rb$_{3}$Nb$_{2}$S$_{11}$,1.5100999999999998,eV,,,,,,,
Mn$_{3}$BO$_{5}$,0.05699999999999994,eV,,,,,,,
MgGeH$_{12}$(OF)$_{6}$,4.5983,eV,,,,,,,
CsS$_{2}$N(O$_{2}$F)$_{2}$,5.4829,eV,,,,,,,
Ni$_{4}$(Bi$_{4}$I)$_{3}$,0.0,eV,,,,,,,
Cs$_{2}$WBr$_{6}$,0.0,eV,,,,,,,
TiCu$_{2}$Te$_{3}$,0.0,eV,,,,,,,
NiPH$_{16}$NO$_{10}$,4.6384,eV,,,,,,,
Te$_{2}$MoCl$_{12}$,0.005700000000000038,eV,,,,,,,
Ta$_{2}$Se$_{17}$Br$_{12}$,1.3907,eV,,,,,,,
Zn$_{3}$As$_{2}$(HO)$_{16}$,2.4565,eV,,,,,,,
CaNiAsHO$_{5}$,2.4759,eV,,,,,,,
Ba$_{9}$(NbN$_{6}$)$_{2}$,1.2610999999999999,eV,,,,,,,
Rb$_{3}$InP$_{2}$,0.5070999999999999,eV,,,,,,,
Bi$_{4}$RuI$_{2}$,0.45189999999999975,eV,,,,,,,
Bi$_{4}$RuBr$_{2}$,0.5303999999999998,eV,,,,,,,
BiAuBr$_{6}$,1.1255,eV,,,,,,,
CoH$_{2}$SeO$_{4}$,2.7071,eV,,,,,,,
GePdS$_{3}$,1.3072,eV,,,,,,,
Na$_{8}$Hg$_{3}$,0.0,eV,,,,,,,
P$_{2}$S$_{5}$,2.554,eV,,,,,,,
CsGd(CO$_{3}$)$_{2}$,2.7428999999999997,eV,,,,,,,
NaFeBP$_{2}$H$_{3}$O$_{10}$,2.6123,eV,,,,,,,
MnH$_{4}$S$_{2}$O$_{9}$,4.796,eV,,,,,,,
Li$_{6}$Zr$_{2}$O$_{7}$,3.9436,eV,,,,,,,
Rb$_{4}$Nb$_{11}$O$_{30}$,2.7891999999999997,eV,,,,,,,
K$_{2}$Ni$_{12}$As$_{7}$,0.0,eV,,,,,,,
Cs$_{6}$K$_{3}$GaSb$_{4}$,0.6364999999999998,eV,,,,,,,
RbMgF$_{3}$,6.6647,eV,,,,,,,
NbSeI$_{3}$,0.6281000000000003,eV,,,,,,,
Rb$_{4}$(BSe)$_{9}$,2.1943,eV,,,,,,,
Rb$_{2}$Hg(BSe)$_{9}$,1.8296999999999999,eV,,,,,,,
TlCr$_{5}$S$_{8}$,0.1426999999999996,eV,,,,,,,
Ti(AlBr$_{4}$)$_{2}$,0.0,eV,,,,,,,
Ba$_{2}$Zn$_{7}$F$_{18}$,4.0535,eV,,,,,,,
UCo$_{5}$Si$_{3}$,0.0,eV,,,,,,,
Ba$_{2}$SnS$_{4}$,1.9550999999999994,eV,,,,,,,
CeTmS$_{3}$,0,eV,,,,,,,
Bi$_{2}$Se$_{3}$,0.4356,eV,,,,,,,
DyC$_{2}$,0.0,eV,,,,,,,
FeMoO$_{4}$,2.3256,eV,,,,,,,
Ge$_{5}$Ir$_{4}$,0.12790000000000035,eV,,,,,,,
P$_{4}$O$_{9}$,5.5643,eV,,,,,,,
Al$_{3}$(BRu$_{2}$)$_{2}$,0.0,eV,,,,,,,
Ce$_{2}$(Ni$_{7}$B$_{2}$)$_{3}$,0.008599999999999497,eV,,,,,,,
Co$_{21}$(ReB$_{3}$)$_{2}$,0.0,eV,,,,,,,
U$_{2}$(Co$_{7}$B$_{2}$)$_{3}$,0.0,eV,,,,,,,
Zr$_{2}$(Co$_{7}$B$_{2}$)$_{3}$,0.0,eV,,,,,,,
U$_{3}$TiGe$_{5}$,0.0,eV,,,,,,,
GaP(H$_{2}$O$_{3}$)$_{2}$,4.4271,eV,,,,,,,
Tb$_{12}$(OsC$_{3}$)$_{5}$,0.0,eV,,,,,,,
TiAs$_{2}$H$_{4}$O$_{9}$,2.9447,eV,,,,,,,
ZnHgC$_{4}$(SN)$_{4}$,2.4901999999999997,eV,,,,,,,
CsRe$_{3}$(O$_{3}$F$_{5}$)$_{2}$,3.0448,eV,,,,,,,
Te$_{3}$MoCl$_{16}$,0.0514,eV,,,,,,,
KAl$_{2}$P$_{2}$H$_{5}$O$_{11}$,5.2526,eV,,,,,,,
K$_{3}$SnSe$_{3}$,1.6275999999999997,eV,,,,,,,
TaTeCl$_{9}$,2.6448,eV,,,,,,,
K$_{2}$Ge$_{2}$S$_{5}$,2.3159,eV,,,,,,,
Rb$_{2}$Ge$_{2}$S$_{5}$,2.3390999999999997,eV,,,,,,,
Rb$_{2}$Ge$_{2}$Se$_{5}$,1.6899,eV,,,,,,,
Tb$_{3}$Ni$_{13}$B$_{2}$,0.0,eV,,,,,,,
In$_{3}$Te$_{4}$,0.08389999999999986,eV,,,,,,,
Pr$_{2}$Co$_{3}$Ge$_{5}$,0.0,eV,,,,,,,
Na$_{2}$(ReS$_{2}$)$_{3}$,1.4417,eV,,,,,,,
Rb$_{2}$Cd(PSe$_{3}$)$_{2}$,1.9896,eV,,,,,,,
CsCdBr$_{3}$,2.9022,eV,,,,,,,
LiGa$_{2}$Ir,0.0,eV,,,,,,,
AlH$_{15}$(NF)$_{6}$,5.5093000000000005,eV,,,,,,,
KH$_{18}$OsN$_{6}$(ClO$_{2}$)$_{4}$,3.0483,eV,,,,,,,
Fe$_{3}$O$_{4}$,0.35809999999999986,eV,,,,,,,
KSbF$_{6}$,4.9633,eV,,,,,,,
Zr$_{2}$(NiP)$_{3}$,0.0,eV,,,,,,,
HfNCl,2.2055000000000002,eV,,,,,,,
ZrBrN,1.4423,eV,,,,,,,
FeHgC$_{4}$(SN)$_{4}$,0.0,eV,,,,,,,
MnHgC$_{4}$(SN)$_{4}$,1.6619000000000002,eV,,,,,,,
K$_{2}$Ag(AsSe$_{2}$)$_{3}$,1.3199999999999998,eV,,,,,,,
Rb$_{2}$Ag(AsSe$_{2}$)$_{3}$,1.3497,eV,,,,,,,