formula,Property Band Gap,Property Band Gap units,Property Band gap,Property Band gap units,Temperature (Property Band gap),Temperature (Property Band gap) units,Property Color,Temperature (Property Color),Temperature (Property Color) units
Sr$_{2}$CoWO$_{6}$,1.7524000000000002,eV,,,,,,,
La$_{2}$MnCoO$_{6}$,0.02150000000000052,eV,,,,,,,
LiAl(MoO$_{4}$)$_{2}$,3.6252000000000004,eV,,,,,,,
ThTe,0.0,eV,,,,,,,
CoPtO$_{2}$,0.0,eV,,,,,,,
SrNi$_{3}$(P$_{2}$O$_{7}$)$_{2}$,4.020099999999999,eV,,,,,,,
Rb$_{2}$MoO$_{4}$,4.4469,eV,,,,,,,
Ba$_{2}$Mn$_{2}$Sb$_{2}$O,8.999999999996788E-4,eV,,,,,,,
CeVO$_{4}$,0.0,eV,,,,,,,
CaCrO$_{4}$,2.3678,eV,,,,,,,
Zn$_{2}$Mo$_{3}$O$_{8}$,0.09440000000000026,eV,,,,,,,
ErMnO$_{3}$,0.0,eV,,,,,,,
Sr$_{3}$Fe$_{2}$O$_{5}$,0.8606000000000003,eV,,,,,,,
Li$_{3}$VO$_{4}$,4.0337,eV,,,,,,,
RuSe$_{2}$,0.3113999999999999,eV,,,,,,,
CaSi$_{2}$NiO$_{6}$,4.4392,eV,,,,,,,
Ca$_{3}$MnZnO$_{6}$,2.2453000000000003,eV,,,,,,,
FeAgO$_{2}$,1.1341,eV,,,,,,,
NaFePO$_{4}$,3.8275,eV,,,,,,,
YMnO$_{3}$,0.0,eV,,,,,,,
K$_{2}$MnV$_{4}$O$_{12}$,1.9929999999999999,eV,,,,,,,
K$_{3}$NaCr$_{2}$O$_{8}$,3.0589000000000004,eV,,,,,,,
Mn(SbO$_{2}$)$_{2}$,1.6341999999999999,eV,,,,,,,
K$_{2}$CrO$_{4}$,3.0699,eV,,,,,,,
Ba$_{2}$WO$_{3}$F$_{4}$,3.9748,eV,,,,,,,
Sr$_{6}$(CoO$_{3}$)$_{5}$,0.4873000000000003,eV,,,,,,,
Sr$_{2}$MoO$_{4}$,0,eV,,,,,,,
Co(PtO$_{2}$)$_{3}$,0.3764000000000003,eV,,,,,,,
Mg$_{6}$MnO$_{8}$,2.2891,eV,,,,,,,
TbSi,0.0,eV,,,,,,,
ErCrO$_{4}$,0.24580000000000002,eV,,,,,,,
BaNiO$_{3}$,1.4754999999999998,eV,,,,,,,
YNiO$_{3}$,0.0,eV,,,,,,,
VSb$_{2}$O$_{5}$,2.5772,eV,,,,,,,
BaLaMn$_{2}$O$_{6}$,0.28829999999999956,eV,,,,,,,
Sr$_{2}$Mn$_{3}$(SbO)$_{2}$,0,eV,,,,,,,
ScVO$_{4}$,2.6445000000000003,eV,,,,,,,
BaSm$_{2}$CoO$_{5}$,1.5058000000000002,eV,,,,,,,
YbNiO$_{3}$,0.0,eV,,,,,,,
ZrS,0.0,eV,,,,,,,
RbLiCrO$_{4}$,2.976,eV,,,,,,,
K$_{2}$NiO$_{2}$,2.7796,eV,,,,,,,
NdVO$_{3}$,0.02009999999999934,eV,,,,,,,
FeSO$_{4}$,4.2084,eV,,,,,,,
TiFe$_{2}$O$_{5}$,1.7134000000000005,eV,,,,,,,
Er$_{2}$Mn$_{2}$O$_{7}$,1.0707,eV,,,,,,,
SmCrO$_{3}$,2.2433000000000005,eV,,,,,,,
Ba$_{2}$SmMoO$_{6}$,0.0,eV,,,,,,,
Sr$_{4}$Al$_{6}$WO$_{16}$,3.5418999999999996,eV,,,,,,,
HoFe$_{2}$,0.0,eV,,,,,,,
Li$_{2}$WO$_{4}$,3.9680000000000004,eV,,,,,,,
Na$_{3}$MnPCO$_{7}$,3.2988,eV,,,,,,,
Cr$_{2}$CdO$_{4}$,2.4764999999999997,eV,,,,,,,
Co$_{3}$(PO$_{4}$)$_{2}$,2.713,eV,,,,,,,
DyNiO$_{3}$,0,eV,,,,,,,
Sr$_{2}$FeWO$_{6}$,1.9746000000000001,eV,,,,,,,
BaMnO$_{3}$,2.0603,eV,,,,,,,
NdCrO$_{3}$,2.3395,eV,,,,,,,
Dy$_{4}$Sb$_{3}$,0.0,eV,,,,,,,
TiFeO$_{3}$,2.0256000000000003,eV,,,,,,,
BaCrO$_{3}$,0.0,eV,,,,,,,
TbCrO$_{4}$,0.24909999999999988,eV,,,,,,,
BaPrMn$_{2}$O$_{6}$,0,eV,,,,,,,
CoO,0.0045999999999999375,eV,,,,,,,
BaMoO$_{4}$,4.1439,eV,,,,,,,
VSO$_{5}$,1.9101000000000001,eV,,,,,,,
BaCoP$_{2}$O$_{7}$,3.0692,eV,,,,,,,
Li$_{2}$MnO$_{2}$,2.4357,eV,,,,,,,
PuMn$_{2}$,0.0,eV,,,,,,,
NaCr$_{3}$O$_{8}$,1.7910000000000001,eV,,,,,,,
LaCrO$_{3}$,2.1644999999999994,eV,,,,,,,
Sr$_{2}$ZnWO$_{6}$,3.402,eV,,,,,,,
WO$_{3}$,1.3694000000000002,eV,,,,,,,
NiAgO$_{2}$,0,eV,,,,,,,
Ba(FeO$_{2}$)$_{2}$,1.7500000000000002,eV,,,,,,,
NaV(SiO$_{3}$)$_{2}$,2.0001999999999995,eV,,,,,,,
NdB$_{6}$,0.0,eV,,,,,,,
Mn$_{2}$As$_{2}$O$_{7}$,1.2487999999999997,eV,,,,,,,
NaVPO$_{5}$,1.2667000000000002,eV,,,,,,,
Co(AsO$_{3}$)$_{2}$,1.9811999999999999,eV,,,,,,,
Sr$_{2}$FeO$_{3}$F,1.2045000000000003,eV,,,,,,,
LiFeP$_{2}$O$_{7}$,2.5994,eV,,,,,,,
LuVO$_{4}$,2.6045999999999996,eV,,,,,,,
SrVSi$_{2}$O$_{7}$,2.8073,eV,,,,,,,
La$_{4}$Ni$_{3}$O$_{10}$,0,eV,,,,,,,
CrBO$_{3}$,2.3026,eV,,,,,,,
Zr$_{2}$Cu,0.0,eV,,,,,,,
La$_{2}$MoO$_{6}$,2.7923999999999998,eV,,,,,,,
NaCaVO$_{4}$,3.6886,eV,,,,,,,
Cr$_{2}$NiO$_{4}$,0,eV,,,,,,,
K$_{2}$MnSO$_{4}$F$_{3}$,1.3256999999999999,eV,,,,,,,
CaV$_{2}$O$_{5}$,1.8883999999999999,eV,,,,,,,
Fe$_{3}$O$_{4}$,0.0,eV,,,,,,,
Ni(RhO$_{2}$)$_{2}$,0,eV,,,,,,,
Li$_{2}$NiO$_{2}$,3.7100000000000004,eV,,,,,,,
Be$_{3}$Fe$_{4}$Si$_{3}$SO$_{12}$,0.0036000000000004917,eV,,,,,,,
Na$_{3}$Co(NO$_{2}$)$_{6}$,2.4684,eV,,,,,,,
V$_{2}$CoO$_{6}$,2.0122,eV,,,,,,,
Tb$_{2}$BaNiO$_{5}$,2.2149000000000005,eV,,,,,,,
Zn(FeO$_{2}$)$_{2}$,1.6686,eV,,,,,,,
Mn$_{4}$Be$_{3}$Si$_{3}$SO$_{12}$,3.1083,eV,,,,,,,
Sr$_{2}$MnWO$_{6}$,2.1882,eV,,,,,,,
Yb(FeO$_{2}$)$_{2}$,1.1017000000000001,eV,,,,,,,
Ag$_{2}$MoO$_{4}$,1.8720999999999999,eV,,,,,,,
ErMnO$_{3}$,0.4478000000000004,eV,,,,,,,
Nb$_{3}$Os,0.0,eV,,,,,,,
K$_{2}$FeO$_{4}$,1.5215,eV,,,,,,,
Na$_{6}$MnO$_{4}$,0.7766000000000002,eV,,,,,,,
BaMoO$_{3}$,0,eV,,,,,,,
SmVO$_{4}$,3.0043,eV,,,,,,,
Ca$_{2}$MgWO$_{6}$,3.7446999999999995,eV,,,,,,,
BaY$_{2}$NiO$_{5}$,2.2417,eV,,,,,,,
MnO$_{2}$,1.0003,eV,,,,,,,
LuNiO$_{3}$,0.11350000000000016,eV,,,,,,,
NaWO$_{3}$,0.3454000000000006,eV,,,,,,,
Na$_{2}$V(PO$_{4}$)$_{2}$,2.7586000000000004,eV,,,,,,,
Cu$_{3}$N,0.1899999999999995,eV,,,,,,,
CaMoO$_{4}$,3.5057,eV,,,,,,,
MnNiO$_{3}$,1.3822,eV,,,,,,,
BaGd$_{2}$NiO$_{5}$,2.0620999999999996,eV,,,,,,,
Fe$_{2}$B$_{2}$O$_{5}$,3.4246,eV,,,,,,,
Na$_{4}$WO$_{5}$,0.0,eV,,,,,,,
KCr$_{3}$O$_{8}$,1.8261,eV,,,,,,,
Nd$_{2}$MnCoO$_{6}$,1.0807000000000002,eV,,,,,,,
Ba$_{3}$CoSb$_{2}$O$_{9}$,1.8777,eV,,,,,,,
LiMoO$_{2}$,0.0,eV,,,,,,,
LaNiO$_{3}$,0.0,eV,,,,,,,
LiZn,0.0,eV,,,,,,,
LiVO$_{2}$,1.7864999999999998,eV,,,,,,,
Tl$_{2}$WO$_{4}$,3.319,eV,,,,,,,
WO$_{3}$,1.3331,eV,,,,,,,
Co$_{4}$B$_{6}$O$_{13}$,2.8023999999999996,eV,,,,,,,
Cr$_{2}$NiO$_{4}$,2.4319000000000006,eV,,,,,,,
ErMn$_{2}$O$_{5}$,1.0779,eV,,,,,,,
Fe$_{3}$(PO$_{4}$)$_{2}$,3.4932,eV,,,,,,,
CaV$_{3}$O$_{7}$,2.4386,eV,,,,,,,
Al$_{4}$Co(BO$_{5}$)$_{2}$,2.8938999999999995,eV,,,,,,,
NaMn(SiO$_{3}$)$_{2}$,1.0161999999999995,eV,,,,,,,
BaMg$_{2}$,0.0,eV,,,,,,,
LaVO$_{3}$,0.9979999999999993,eV,,,,,,,
MnSi$_{2}$O$_{5}$,3.4858000000000002,eV,,,,,,,
KAl(MoO$_{4}$)$_{2}$,3.8863000000000003,eV,,,,,,,
PrCrO$_{3}$,2.2733999999999996,eV,,,,,,,
PrMn$_{7}$O$_{12}$,0,eV,,,,,,,
YbMnO$_{3}$,0.0,eV,,,,,,,
LaCrO$_{3}$,2.2693000000000003,eV,,,,,,,
SmMn$_{2}$O$_{5}$,1.0884999999999998,eV,,,,,,,
NaFeO$_{2}$,1.9393999999999996,eV,,,,,,,
TaAs,0.0,eV,,,,,,,
LuCrO$_{4}$,0.23330000000000028,eV,,,,,,,
Cr$_{2}$(SO$_{4}$)$_{3}$,2.6831,eV,,,,,,,
KFe(MoO$_{4}$)$_{2}$,2.5929,eV,,,,,,,
HgMoO$_{4}$,2.2464000000000004,eV,,,,,,,
BaDy$_{2}$CoO$_{5}$,1.8435999999999995,eV,,,,,,,
Ba$_{3}$V$_{2}$O$_{8}$,3.7426999999999997,eV,,,,,,,
Lu(FeO$_{2}$)$_{2}$,0,eV,,,,,,,
NaCr(SiO$_{3}$)$_{2}$,2.8718999999999997,eV,,,,,,,
Sr$_{2}$V$_{2}$O$_{7}$,3.3868,eV,,,,,,,
Ti$_{2}$CrO$_{5}$,0.2987000000000002,eV,,,,,,,
YbCu,0.0,eV,,,,,,,
LaCoPO,0.013799999999999812,eV,,,,,,,
WO$_{2}$,1.2391000000000005,eV,,,,,,,
LiVO$_{3}$,3.0342000000000002,eV,,,,,,,
K$_{2}$SrNi(NO$_{2}$)$_{6}$,2.1971,eV,,,,,,,
CeCrSe$_{2}$O,0,eV,,,,,,,
TiMnO$_{3}$,1.8848000000000003,eV,,,,,,,
LiLa$_{2}$MoO$_{6}$,1.6197999999999997,eV,,,,,,,
CrAgO$_{2}$,1.6634000000000007,eV,,,,,,,
CoSO$_{4}$,2.7685999999999997,eV,,,,,,,
Al$_{2}$O$_{3}$,5.313199999999999,eV,,,,,,,
CrHgO$_{4}$,1.3635,eV,,,,,,,
DyCrO$_{3}$,2.4922,eV,,,,,,,
Ti$_{4}$Mn(PO$_{4}$)$_{6}$,2.4649,eV,,,,,,,
Ni(AsO$_{3}$)$_{2}$,2.2402,eV,,,,,,,
Sr$_{3}$V$_{2}$O$_{8}$,3.676,eV,,,,,,,
CdWO$_{4}$,3.2878000000000003,eV,,,,,,,
BaNi$_{2}$(AsO$_{4}$)$_{2}$,2.8416,eV,,,,,,,
ErNi$_{2}$,0.0,eV,,,,,,,
WO$_{3}$,1.4706000000000001,eV,,,,,,,
NaVO$_{2}$,1.7714000000000003,eV,,,,,,,
NdMn$_{2}$O$_{5}$,1.2426,eV,,,,,,,
LiV$_{2}$O$_{4}$,0.0,eV,,,,,,,
MnO$_{2}$,1.0947,eV,,,,,,,
Na$_{4}$Fe$_{2}$O$_{5}$,1.9196000000000002,eV,,,,,,,
Ba$_{2}$Na(NiO$_{2}$)$_{3}$,0.5345,eV,,,,,,,
FeAsO$_{4}$,2.083,eV,,,,,,,
Cr$_{2}$O$_{3}$,2.4365,eV,,,,,,,
Th$_{2}$N$_{3}$,0.0,eV,,,,,,,
Sr$_{2}$NiWO$_{6}$,3.3599,eV,,,,,,,
CrPO$_{4}$,2.4649,eV,,,,,,,
V$_{4}$Ag$_{2}$O$_{11}$,1.0722999999999998,eV,,,,,,,
Ba$_{2}$CaMoO$_{6}$,2.258,eV,,,,,,,
Ni(AgO)$_{2}$,0.0,eV,,,,,,,
La$_{2}$MgMnO$_{6}$,1.9571000000000005,eV,,,,,,,
MnWO$_{4}$,2.3562999999999996,eV,,,,,,,
LiV$_{2}$O$_{5}$,1.1530999999999998,eV,,,,,,,
Mn(AsO$_{3}$)$_{2}$,1.7241,eV,,,,,,,
GaNi,0.0,eV,,,,,,,
ZnCr$_{2}$O$_{4}$,2.6228999999999996,eV,,,,,,,
Cs$_{2}$SrV$_{4}$O$_{12}$,2.6751,eV,,,,,,,
VAg$_{3}$O$_{4}$,0.6003,eV,,,,,,,
AlWO$_{4}$,0.0,eV,,,,,,,
K$_{3}$CrO$_{4}$,1.2286000000000001,eV,,,,,,,
Er(FeO$_{2}$)$_{2}$,0.0,eV,,,,,,,
BaDy$_{2}$NiO$_{5}$,2.2452,eV,,,,,,,
TiFeO$_{3}$,2.0330999999999997,eV,,,,,,,
VCrO$_{4}$,1.9112,eV,,,,,,,
LiFeO$_{2}$,1.6720000000000002,eV,,,,,,,
Sr$_{2}$MgWO$_{6}$,3.4276000000000004,eV,,,,,,,
FeWO$_{4}$,2.401,eV,,,,,,,
Na$_{3}$VS$_{3}$O,2.0204,eV,,,,,,,
TiCoO$_{3}$,0.0,eV,,,,,,,
CaWO$_{4}$,4.3443,eV,,,,,,,
Na$_{7}$(CoO$_{3}$)$_{2}$,0.0,eV,,,,,,,
TbK$_{2}$RbV$_{2}$O$_{8}$,3.3998999999999997,eV,,,,,,,
GaSe,1.2353999999999998,eV,,,,,,,
Li$_{3}$Fe$_{2}$(PO$_{4}$)$_{3}$,2.473,eV,,,,,,,
LiYMo$_{3}$O$_{8}$,0.0,eV,,,,,,,
KNaV$_{2}$O$_{6}$,3.2404,eV,,,,,,,
LiScMo$_{3}$O$_{8}$,0.0,eV,,,,,,,
Pr$_{2}$NiO$_{4}$,1.6753,eV,,,,,,,
CoMoO$_{4}$,1.7058999999999997,eV,,,,,,,
La$_{7}$Mo$_{7}$O$_{30}$,1.1666000000000007,eV,,,,,,,
LiMnO$_{4}$,1.5169,eV,,,,,,,
CoP$_{3}$,0.27949999999999964,eV,,,,,,,
LiVO$_{3}$,2.8222,eV,,,,,,,
CaCr(Si$_{2}$O$_{5}$)$_{2}$,3.3907000000000003,eV,,,,,,,
Mn(Ni$_{3}$O$_{4}$)$_{2}$,1.3056,eV,,,,,,,
WO$_{3}$,1.1455,eV,,,,,,,
LiLa$_{4}$NiO$_{8}$,1.5834000000000001,eV,,,,,,,
CaMn(SiO$_{3}$)$_{2}$,3.2619000000000002,eV,,,,,,,
Cs$_{2}$NaVO$_{4}$,3.9493,eV,,,,,,,
Ni$_{3}$TeO$_{6}$,1.6891999999999996,eV,,,,,,,
NaVCdO$_{4}$,3.0267,eV,,,,,,,
NdCu$_{6}$,0.019199999999999662,eV,,,,,,,
ScTl(MoO$_{4}$)$_{2}$,3.6201,eV,,,,,,,
V$_{2}$Cd(P$_{2}$O$_{7}$)$_{2}$,1.9543999999999997,eV,,,,,,,
Te$_{2}$MoO$_{7}$,2.8149999999999995,eV,,,,,,,
MnMoO$_{4}$,1.4039999999999995,eV,,,,,,,
AlV$_{2}$O$_{4}$,0,eV,,,,,,,
V$_{6}$O$_{13}$,0.0,eV,,,,,,,
BaV$_{10}$O$_{15}$,0.8319000000000001,eV,,,,,,,
K$_{2}$MgV$_{2}$O$_{7}$,3.6258,eV,,,,,,,
Ba$_{5}$Nd$_{8}$Mn$_{4}$O$_{21}$,1.8889,eV,,,,,,,
Na$_{5}$Nd(WO$_{4}$)$_{4}$,4.7863999999999995,eV,,,,,,,
KP$_{2}$WO$_{8}$,3.5098,eV,,,,,,,
TbNa$_{5}$(WO$_{4}$)$_{4}$,4.804,eV,,,,,,,
Na$_{5}$Lu(MoO$_{4}$)$_{4}$,3.8301999999999996,eV,,,,,,,
HoCo(BO$_{2}$)$_{5}$,3.1169000000000002,eV,,,,,,,
FeSb$_{2}$C$_{6}$(OF$_{2}$)$_{6}$,4.6082,eV,,,,,,,
AgMo$_{3}$P$_{3}$O$_{16}$,1.5694000000000001,eV,,,,,,,
YCo(BO$_{2}$)$_{5}$,3.115,eV,,,,,,,
TbNa$_{5}$(MoO$_{4}$)$_{4}$,3.9379999999999997,eV,,,,,,,
Na$_{4}$Ni$_{7}$(PO$_{4}$)$_{6}$,3.3516999999999997,eV,,,,,,,
Ba$_{5}$Sm$_{8}$Mn$_{4}$O$_{21}$,1.9978999999999996,eV,,,,,,,
Rb$_{2}$MnV$_{2}$O$_{7}$,2.5644,eV,,,,,,,
CaNi$_{3}$(P$_{2}$O$_{7}$)$_{2}$,4.0017,eV,,,,,,,
Ba$_{2}$V$_{2}$O$_{7}$,3.4599,eV,,,,,,,
LaCo(BO$_{2}$)$_{5}$,3.1116,eV,,,,,,,
CsFe$_{2}$P$_{5}$O$_{16}$,2.6079000000000003,eV,,,,,,,
Mn$_{2}$Al$_{4}$Si$_{5}$O$_{18}$,3.907,eV,,,,,,,
VAg$_{2}$(PO$_{4}$)$_{2}$,2.0121,eV,,,,,,,
Na$_{5}$La(MoO$_{4}$)$_{4}$,4.0741000000000005,eV,,,,,,,
LaAg,0.0,eV,,,,,,,
SmTl(MoO$_{4}$)$_{2}$,3.5068,eV,,,,,,,
Rb$_{2}$V(PO$_{4}$)$_{2}$,2.9534,eV,,,,,,,
Na$_{2}$V(PO$_{4}$)$_{2}$,2.6068000000000002,eV,,,,,,,
TmFeGe$_{2}$O$_{7}$,2.5789,eV,,,,,,,
BaCaV$_{2}$O$_{7}$,3.2318000000000002,eV,,,,,,,
Ba$_{5}$Gd$_{8}$Mn$_{4}$O$_{21}$,2.0589999999999997,eV,,,,,,,
Ba$_{2}$Mn(PO$_{4}$)$_{2}$,4.1325,eV,,,,,,,
Rb$_{2}$MnSO$_{4}$F$_{3}$,1.7343000000000002,eV,,,,,,,
SmCo(BO$_{2}$)$_{5}$,3.1130999999999998,eV,,,,,,,
TiMn$_{2}$,0.0,eV,,,,,,,
PrTl(MoO$_{4}$)$_{2}$,3.4692,eV,,,,,,,
Ba$_{2}$Ni(PO$_{4}$)$_{2}$,3.8444,eV,,,,,,,
LiMn(PO$_{3}$)$_{3}$,4.3259,eV,,,,,,,
NdCo(BO$_{2}$)$_{5}$,3.1128,eV,,,,,,,
KV$_{2}$SbO$_{8}$,2.7796000000000003,eV,,,,,,,
Na$_{5}$Y(MoO$_{4}$)$_{4}$,3.9476000000000004,eV,,,,,,,
KCrPO$_{4}$F,2.5013,eV,,,,,,,
KY(MoO$_{4}$)$_{2}$,3.589,eV,,,,,,,
HoPt$_{3}$,0.0,eV,,,,,,,
SrS$_{2}$,1.2822,eV,,,,,,,
BaCr$_{10}$O$_{15}$,0.0,eV,,,,,,,
Ba$_{6}$Na$_{2}$V$_{2}$Ru$_{2}$O$_{17}$,0.4121999999999999,eV,,,,,,,
BaTi$_{18}$Mn$_{3}$O$_{38}$,0.0,eV,,,,,,,
MnTe$_{2}$O$_{5}$,2.3706,eV,,,,,,,
BaV$_{2}$(CoO$_{4}$)$_{2}$,1.8963999999999999,eV,,,,,,,
SrCr$_{10}$O$_{15}$,0.0,eV,,,,,,,
BaMn$_{2}$V$_{2}$O$_{8}$,2.1893,eV,,,,,,,
SrCr(Si$_{2}$O$_{5}$)$_{2}$,3.2707,eV,,,,,,,
SrV$_{10}$O$_{15}$,0.9268999999999998,eV,,,,,,,
V$_{2}$Cd(PO$_{5}$)$_{2}$,2.1523000000000003,eV,,,,,,,
Li$_{5}$FeO$_{4}$,3.0546,eV,,,,,,,
BaV$_{2}$(PO$_{5}$)$_{2}$,2.2674000000000003,eV,,,,,,,
SrV$_{2}$(AsO$_{5}$)$_{2}$,1.6632,eV,,,,,,,
Sr$_{2}$CrO$_{4}$,1.9682999999999997,eV,,,,,,,
Al$_{2}$(WO$_{4}$)$_{3}$,4.5569,eV,,,,,,,
KVPO$_{5}$,1.5461000000000003,eV,,,,,,,
BaCr(Si$_{2}$O$_{5}$)$_{2}$,3.2289,eV,,,,,,,
Ni$_{3}$(AsO$_{4}$)$_{2}$,2.3598000000000003,eV,,,,,,,
Ba$_{7}$Al$_{13}$,0.0,eV,,,,,,,
NdNi(BO$_{2}$)$_{5}$,3.8165000000000004,eV,,,,,,,
Al$_{2}$(MoO$_{4}$)$_{3}$,3.7586,eV,,,,,,,
P$_{2}$W$_{2}$O$_{11}$,3.1085000000000003,eV,,,,,,,
Na$_{9}$Fe$_{2}$O$_{7}$,1.7321,eV,,,,,,,
SnMo$_{5}$O$_{8}$,0.9695,eV,,,,,,,
K$_{2}$Mn$_{2}$(SO$_{4}$)$_{3}$,4.431,eV,,,,,,,
PrMo$_{5}$O$_{8}$,1.1190000000000007,eV,,,,,,,
MnSiO$_{3}$,2.6058,eV,,,,,,,
W$_{18}$O$_{49}$,0,eV,,,,,,,
TiAl,0.0,eV,,,,,,,
Rb$_{2}$TeMo$_{2}$(PO$_{7}$)$_{2}$,2.9934000000000003,eV,,,,,,,
Li$_{6}$Ca$_{12}$W$_{4}$N$_{16}$O$_{3}$,2.818,eV,,,,,,,
Al$_{2}$Fe$_{3}$(SiO$_{4}$)$_{3}$,3.641399999999999,eV,,,,,,,
Tb$_{2}$(MoO$_{4}$)$_{3}$,3.5663,eV,,,,,,,
Ca$_{3}$Fe$_{2}$(SiO$_{4}$)$_{3}$,2.6134000000000004,eV,,,,,,,
La$_{4}$Mo$_{2}$O$_{11}$,1.8151000000000002,eV,,,,,,,
Na$_{5}$FeO$_{4}$,2.1493,eV,,,,,,,
SrFe$_{12}$O$_{19}$,1.1185999999999998,eV,,,,,,,
MnB$_{4}$O$_{7}$,4.9226,eV,,,,,,,
P$_{3}$N$_{5}$,2.6235999999999997,eV,,,,,,,
Mo$_{8}$O$_{23}$,0.11549999999999971,eV,,,,,,,
Mg$_{3}$Mn$_{2}$(SiO$_{4}$)$_{3}$,0.0,eV,,,,,,,
Na$_{3}$Cr$_{2}$(AsO$_{4}$)$_{3}$,2.6075,eV,,,,,,,
Rb$_{2}$Mn$_{2}$(SO$_{4}$)$_{3}$,4.4946,eV,,,,,,,
RbMn$_{4}$(AsO$_{4}$)$_{3}$,1.9685,eV,,,,,,,
Zr$_{2}$Mo(PO$_{6}$)$_{2}$,3.1721,eV,,,,,,,
CaMn$_{2}$Be$_{3}$(SiO$_{4}$)$_{3}$,3.8561,eV,,,,,,,
Mn$_{3}$V$_{2}$(SiO$_{4}$)$_{3}$,0,eV,,,,,,,
ErCu,0.0,eV,,,,,,,
AgMo$_{2}$P$_{3}$O$_{13}$,2.112,eV,,,,,,,
RbMo$_{2}$(PO$_{4}$)$_{3}$,0.8924999999999998,eV,,,,,,,
Al$_{2}$Co$_{3}$(SiO$_{4}$)$_{3}$,2.9508,eV,,,,,,,
Mn$_{3}$Al$_{2}$(SiO$_{4}$)$_{3}$,3.5565000000000007,eV,,,,,,,
RbMo$_{2}$P$_{3}$O$_{13}$,2.3407,eV,,,,,,,
KFePO$_{4}$F,2.4329,eV,,,,,,,
Y$_{2}$(WO$_{4}$)$_{3}$,4.7613,eV,,,,,,,
TmGa$_{2}$,0.0,eV,,,,,,,
KNa$_{2}$Li$_{3}$Fe$_{2}$(Si$_{2}$O$_{5}$)$_{6}$,3.3680000000000003,eV,,,,,,,
Mn$_{3}$Cr$_{2}$(SiO$_{4}$)$_{3}$,2.8887,eV,,,,,,,
KMn$_{6}$P$_{7}$O$_{24}$,3.6268000000000002,eV,,,,,,,
Na$_{2}$CoPO$_{4}$F,2.9785000000000004,eV,,,,,,,
NaMn$_{6}$P$_{7}$O$_{24}$,3.4974999999999996,eV,,,,,,,
SmMo$_{5}$O$_{8}$,0.9264999999999999,eV,,,,,,,
Na$_{3}$Sc$_{2}$V$_{3}$O$_{12}$,3.2084,eV,,,,,,,
Li$_{6}$Ca$_{12}$Mo$_{4}$N$_{16}$O$_{3}$,2.4805,eV,,,,,,,
NdMo$_{5}$O$_{8}$,0.5002000000000004,eV,,,,,,,
AgMoPO$_{6}$,2.0962,eV,,,,,,,
Li$_{3}$Fe$_{2}$(PO$_{4}$)$_{3}$,2.4097,eV,,,,,,,
TlMo$_{2}$(PO$_{4}$)$_{3}$,0.8793000000000002,eV,,,,,,,
Mg$_{3}$V$_{2}$(SiO$_{4}$)$_{3}$,0.0,eV,,,,,,,
Mg$_{3}$Fe$_{2}$(SiO$_{4}$)$_{3}$,2.7116999999999996,eV,,,,,,,
Cr$_{5}$O$_{12}$,1.6425,eV,,,,,,,
K$_{2}$Ni$_{2}$(SO$_{4}$)$_{3}$,3.8754000000000004,eV,,,,,,,
KMn$_{4}$(PO$_{4}$)$_{3}$,3.3057000000000003,eV,,,,,,,
PrTl(MoO$_{4}$)$_{2}$,3.5819999999999994,eV,,,,,,,
SrTe,1.7623000000000002,eV,,,,,,,
Ti$_{2}$Ni(PO$_{5}$)$_{2}$,2.9847,eV,,,,,,,
Mg$_{3}$Cr$_{2}$(SiO$_{4}$)$_{3}$,3.4551,eV,,,,,,,
V$_{2}$Zn$_{3}$O$_{8}$,2.7049,eV,,,,,,,
K$_{3}$NdV$_{2}$O$_{8}$,3.6332,eV,,,,,,,
CaMo$_{5}$O$_{8}$,1.2218999999999998,eV,,,,,,,
KNa$_{2}$Li$_{3}$Cr$_{2}$(Si$_{2}$O$_{5}$)$_{6}$,3.7649,eV,,,,,,,
UCrO$_{4}$,0.33869999999999933,eV,,,,,,,
Sc$_{2}$(WO$_{4}$)$_{3}$,4.126,eV,,,,,,,
Mn$_{6}$AgP$_{7}$O$_{24}$,2.4581,eV,,,,,,,
PuO$_{2}$,0.0,eV,,,,,,,
FeSb$_{4}$C$_{6}$(O$_{3}$F$_{11}$)$_{2}$,4.461,eV,,,,,,,
Mn$_{4}$SiO$_{7}$,0.8957000000000002,eV,,,,,,,
Nd$_{4}$MnSe$_{6}$O,1.9933,eV,,,,,,,
Sc$_{2}$(MoO$_{4}$)$_{3}$,3.5309,eV,,,,,,,
Sm$_{4}$FeSe$_{6}$O,0.0,eV,,,,,,,
K$_{2}$V$_{3}$O$_{8}$,2.0111,eV,,,,,,,
Ca$_{3}$Mn$_{2}$(SiO$_{4}$)$_{3}$,0.02519999999999989,eV,,,,,,,
GdCrO$_{3}$,2.4135999999999997,eV,,,,,,,
Ca$_{3}$Cr$_{2}$(SiO$_{4}$)$_{3}$,3.2228999999999997,eV,,,,,,,
Al$_{5}$Co$_{2}$,0.0,eV,,,,,,,
Li$_{2}$O,4.8986,eV,,,,,,,
Ni$_{2}$Te$_{3}$O$_{8}$,3.0199000000000007,eV,,,,,,,
Ba$_{2}$CoO$_{4}$,1.0982,eV,,,,,,,
Sr$_{2}$Co(SeO$_{3}$)$_{3}$,2.8213999999999997,eV,,,,,,,
NaMnAsO$_{4}$,1.7334999999999998,eV,,,,,,,
K$_{3}$Na(WO$_{4}$)$_{2}$,4.6671,eV,,,,,,,
K(MoO$_{3}$)$_{3}$,0.0,eV,,,,,,,
SnWO$_{4}$,3.8370000000000006,eV,,,,,,,
Fe$_{2}$Ni(PO$_{4}$)$_{2}$,3.4083,eV,,,,,,,
Ca$_{3}$Mn$_{2}$O$_{7}$,0.22750000000000004,eV,,,,,,,
ScZnMo$_{3}$O$_{8}$,0.6042999999999994,eV,,,,,,,
Co$_{2}$Mo$_{3}$O$_{8}$,1.9430999999999998,eV,,,,,,,
KBaFeO$_{3}$,2.3578,eV,,,,,,,
KMn$_{4}$(PO$_{4}$)$_{3}$,3.0707000000000004,eV,,,,,,,
Li$_{3}$V$_{2}$(PO$_{4}$)$_{3}$,1.9207,eV,,,,,,,
Na$_{2}$LiFe(Si$_{2}$O$_{5}$)$_{3}$,3.3947000000000003,eV,,,,,,,
Rb(WO$_{3}$)$_{3}$,0,eV,,,,,,,
Zr$_{2}$P$_{2}$WO$_{12}$,3.7457,eV,,,,,,,
NaMnPO$_{4}$,3.051,eV,,,,,,,
BaHoCo$_{4}$O$_{7}$,0.18389999999999995,eV,,,,,,,
NaVAsO$_{5}$,1.4588,eV,,,,,,,
Ba$_{3}$MnSb$_{2}$O$_{9}$,1.7642999999999995,eV,,,,,,,
LiVAsO$_{5}$,1.7409999999999999,eV,,,,,,,
BaLuCo$_{4}$O$_{7}$,0.1473,eV,,,,,,,
Ba$_{2}$CoO$_{4}$,1.2212999999999998,eV,,,,,,,
Mn$_{3}$Fe$_{2}$(SiO$_{4}$)$_{3}$,2.3632999999999997,eV,,,,,,,
Na$_{2}$Co(Si$_{2}$O$_{5}$)$_{2}$,3.0632000000000006,eV,,,,,,,
La$_{4}$MnS$_{6}$O,2.2773000000000003,eV,,,,,,,
CrCdO$_{4}$,2.4417,eV,,,,,,,
Cr$_{2}$Fe$_{3}$(SiO$_{4}$)$_{3}$,3.1736999999999997,eV,,,,,,,
CaV$_{2}$CoO$_{7}$,2.0216000000000003,eV,,,,,,,
Sr$_{3}$ScNiO$_{6}$,0,eV,,,,,,,
Sm$_{4}$Mo$_{4}$O$_{11}$,0.8328000000000002,eV,,,,,,,
YbK(WO$_{4}$)$_{2}$,0,eV,,,,,,,
KSrVO$_{4}$,3.8583,eV,,,,,,,
SmTl(MoO$_{4}$)$_{2}$,3.5343999999999998,eV,,,,,,,
Ho$_{2}$Ni(B$_{2}$O$_{5}$)$_{2}$,3.904,eV,,,,,,,
Rb$_{2}$CrO$_{4}$,3.1347,eV,,,,,,,
CoMoO$_{4}$,0.3567999999999998,eV,,,,,,,
K$_{2}$MnV$_{2}$O$_{7}$,2.41,eV,,,,,,,
SrNi$_{2}$(PO$_{4}$)$_{2}$,0.0,eV,,,,,,,
Y$_{3}$Fe$_{5}$O$_{12}$,2.0124000000000004,eV,,,,,,,
Sr$_{4}$MoN$_{4}$O,2.2746,eV,,,,,,,
Mn$_{7}$SiO$_{12}$,0.39070000000000027,eV,,,,,,,
La$_{4}$MnSe$_{6}$O,1.9432,eV,,,,,,,
Ba$_{3}$V$_{2}$S$_{4}$O$_{3}$,0.3835000000000002,eV,,,,,,,
SnWO$_{4}$,0.915,eV,,,,,,,
ErAg(WO$_{4}$)$_{2}$,3.1893000000000002,eV,,,,,,,
Rb$_{2}$Cr$_{2}$O$_{7}$,2.765,eV,,,,,,,
Cu$_{3}$As,0.0,eV,,,,,,,
Sr$_{2}$V$_{2}$O$_{7}$,3.452,eV,,,,,,,
Rb$_{2}$Ni$_{2}$(MoO$_{4}$)$_{3}$,3.3411999999999997,eV,,,,,,,
BaCrO$_{4}$,2.9572,eV,,,,,,,
SrV$_{6}$O$_{15}$,0.08889999999999998,eV,,,,,,,
NaCoPO$_{4}$,2.6915999999999998,eV,,,,,,,
BaTeW$_{2}$O$_{9}$,3.4094,eV,,,,,,,
LiNi$_{2}$P$_{3}$O$_{10}$,3.9647,eV,,,,,,,
LaCrO$_{4}$,1.0296000000000003,eV,,,,,,,
Dy$_{4}$Mo$_{4}$O$_{11}$,0.4894999999999996,eV,,,,,,,
TaTe$_{2}$,0.0,eV,,,,,,,
SrV$_{3}$P$_{4}$O$_{17}$,1.668,eV,,,,,,,
SrCo$_{2}$(PO$_{4}$)$_{2}$,2.8715,eV,,,,,,,
Ba$_{6}$Lu$_{2}$(WO$_{6}$)$_{3}$,2.9893,eV,,,,,,,
Sc$_{2}$Mn$_{2}$O$_{7}$,1.0488999999999997,eV,,,,,,,
Mn$_{5}$(SiO$_{4}$)$_{3}$,0.035499999999999865,eV,,,,,,,
K$_{9}$Ni$_{2}$O$_{7}$,2.1161,eV,,,,,,,
Tl$_{2}$TeMo$_{2}$(PO$_{7}$)$_{2}$,2.8238000000000003,eV,,,,,,,
RbMnO$_{4}$,2.1315,eV,,,,,,,
Y$_{2}$Mo$_{2}$O$_{7}$,0.0,eV,,,,,,,
La$_{2}$O$_{3}$,3.828900000000001,eV,,,,,,,
RbLa(WO$_{4}$)$_{2}$,3.7897,eV,,,,,,,
RbBaMnO$_{4}$,1.7602999999999998,eV,,,,,,,
LiFe(WO$_{4}$)$_{2}$,2.4828,eV,,,,,,,
Th(MoO$_{4}$)$_{2}$,3.7356,eV,,,,,,,
K$_{5}$FeO$_{4}$,2.1249000000000002,eV,,,,,,,
Sm$_{3}$Fe$_{5}$O$_{12}$,1.8948999999999998,eV,,,,,,,
RbLa(MoO$_{4}$)$_{2}$,3.8742,eV,,,,,,,
VCrO$_{4}$,2.2102000000000004,eV,,,,,,,
MnTe$_{2}$O$_{5}$,2.0429000000000004,eV,,,,,,,
NbSb$_{2}$,0.0,eV,,,,,,,
Ba$_{3}$NiSb$_{2}$O$_{9}$,0.7625000000000002,eV,,,,,,,
Mn$_{3}$V$_{2}$O$_{8}$,1.9247,eV,,,,,,,
K$_{2}$Zn$_{2}$(MoO$_{4}$)$_{3}$,3.6458999999999997,eV,,,,,,,
LiSbWO$_{6}$,2.1215,eV,,,,,,,
LiGa(WO$_{4}$)$_{2}$,3.4505999999999997,eV,,,,,,,
CaMgV$_{2}$O$_{7}$,2.7162,eV,,,,,,,
Ba$_{3}$NiSb$_{2}$O$_{9}$,2.3423000000000003,eV,,,,,,,
RbV$_{3}$O$_{8}$,2.0696,eV,,,,,,,
KVTeO$_{5}$,3.3432999999999997,eV,,,,,,,
Yb$_{2}$Be$_{2}$Si$_{2}$NiO$_{10}$,0.2056,eV,,,,,,,
Mn$_{2}$Te$_{3}$O$_{8}$,2.4645,eV,,,,,,,
Ba$_{2}$CrO$_{4}$,1.891,eV,,,,,,,
Mg$_{2}$Tl$_{2}$(MoO$_{4}$)$_{3}$,3.8757,eV,,,,,,,
SrV$_{4}$O$_{9}$,2.4622,eV,,,,,,,
MnSe$_{2}$O$_{5}$,2.4338,eV,,,,,,,
V$_{2}$Zn$_{2}$O$_{7}$,2.5531,eV,,,,,,,