formula,Property Band Gap,Property Band Gap units,Property Band gap,Property Band gap units,Temperature (Property Band gap),Temperature (Property Band gap) units,Property Color,Temperature (Property Color),Temperature (Property Color) units
CsYSeCl$_{2}$O$_{3}$,4.4032,eV,,,,,,,
Ca$_{5}$P$_{3}$ClO$_{12}$,5.4052,eV,,,,,,,
SiO$_{2}$,5.6892,eV,,,,,,,
BaAg$_{2}$SnS$_{4}$,0.36030000000000006,eV,,,,,,,
B$_{12}$S,0.0,eV,,,,,,,
K$_{3}$Nd$_{3}$(PS$_{4}$)$_{4}$,2.4204,eV,,,,,,,
UCO$_{5}$,2.2611,eV,,,,,,,
BaTcO$_{3}$,0.0,eV,,,,,,,
Rb$_{5}$H$_{5}$(OF$_{3}$)$_{2}$,5.3515,eV,,,,,,,
Na$_{2}$Be$_{2}$(SiO$_{3}$)$_{3}$,4.5404,eV,,,,,,,
SmTiClO$_{3}$,3.2110000000000003,eV,,,,,,,
Li$_{2}$ZnSnS$_{4}$,2.1985,eV,,,,,,,
Ba$_{17}$Ho$_{16}$Zn$_{8}$Pt$_{4}$O$_{57}$,2.2984000000000004,eV,,,,,,,
Rb$_{2}$LiC$_{3}$S$_{3}$(OF)$_{9}$,5.8783,eV,,,,,,,
KUCrO$_{6}$,1.6821,eV,,,,,,,
La$_{3}$Si$_{2}$Cl$_{3}$O$_{7}$,4.1096,eV,,,,,,,
SiHg$_{3}$(SF$_{3}$)$_{2}$,2.7818,eV,,,,,,,
TlHgAsS$_{3}$,1.5811000000000002,eV,,,,,,,
NaCoF$_{3}$,2.9522,eV,,,,,,,
KTeHOF$_{4}$,5.027,eV,,,,,,,
Sr$_{5}$B$_{3}$ClO$_{9}$,3.9640999999999993,eV,,,,,,,
BN(OF$_{2}$)$_{2}$,2.9938000000000002,eV,,,,,,,
SiO$_{2}$,5.6207,eV,,,,,,,
Ba$_{2}$InBrO$_{3}$,1.8283000000000005,eV,,,,,,,
ZnS,1.5972999999999997,eV,,,,,,,
Dy$_{3}$Se$_{4}$O$_{12}$F,3.7410999999999994,eV,,,,,,,
Ba$_{4}$Br$_{6}$O,4.1634,eV,,,,,,,
Cs$_{2}$MnF$_{5}$,1.3949,eV,,,,,,,
Bi$_{2}$Rh$_{2}$O$_{7}$,0,eV,,,,,,,
NaSbF$_{4}$,4.3132,eV,,,,,,,
H$_{5}$CNO$_{2}$,5.0115,eV,,,,,,,
Rb$_{2}$YGa(SiO$_{3}$)$_{4}$,4.1384,eV,,,,,,,
Ba$_{3}$Bi$_{2}$(PO$_{4}$)$_{4}$,3.7865,eV,,,,,,,
LiU$_{4}$P$_{3}$O$_{20}$,1.8112000000000001,eV,,,,,,,
RbSbBrF$_{3}$,3.7542,eV,,,,,,,
SiO$_{2}$,5.503399999999999,eV,,,,,,,
Tm$_{2}$Te$_{5}$O$_{13}$,2.8874,eV,,,,,,,
PrSClO$_{4}$,4.7016,eV,,,,,,,
Ba$_{3}$LuRu$_{2}$O$_{9}$,0.0,eV,,,,,,,
Dy$_{3}$ReO$_{7}$,0.0,eV,,,,,,,
AgH$_{9}$C$_{7}$S$_{2}$(OF)$_{4}$,3.1296999999999997,eV,,,,,,,
SiO$_{2}$,5.6355,eV,,,,,,,
Rb$_{2}$Ti(GeO$_{3}$)$_{3}$,3.0728999999999997,eV,,,,,,,
La$_{5}$Ti$_{2}$AgS$_{5}$O$_{7}$,1.5128000000000004,eV,,,,,,,
SbSNF$_{5}$,2.2126,eV,,,,,,,
Li$_{4}$CO$_{4}$,6.072799999999999,eV,,,,,,,
Mg$_{2}$BiPO$_{6}$,3.6187,eV,,,,,,,
Ba$_{3}$NaRu$_{2}$O$_{9}$,0,eV,,,,,,,
UTe$_{2}$PbO$_{8}$,1.9725000000000001,eV,,,,,,,
Ca$_{3}$CoRhO$_{6}$,0,eV,,,,,,,
Ba$_{9}$Fe$_{4}$S$_{15}$,0.012199999999999989,eV,,,,,,,
CuHgSBr,0.5100000000000002,eV,,,,,,,
K$_{2}$Sm$_{2}$IrO$_{7}$,0.2634000000000001,eV,,,,,,,
Ag$_{3}$SbS$_{3}$,1.5109000000000004,eV,,,,,,,
Ba$_{2}$Zn$_{2}$ClF$_{7}$,4.354,eV,,,,,,,
Na$_{5}$Zr$_{2}$F$_{13}$,6.1043,eV,,,,,,,
Ca$_{3}$Ge(ClO$_{2}$)$_{2}$,4.1976,eV,,,,,,,
NbTe$_{7}$Br$_{5}$O,0.6358000000000001,eV,,,,,,,
Sm$_{2}$US$_{5}$,0.0,eV,,,,,,,
Rh$_{7}$(PbO$_{5}$)$_{3}$,0.0,eV,,,,,,,
BSBr,3.6239,eV,,,,,,,
ZnS,2.0347,eV,,,,,,,
Ga$_{2}$S$_{5}$N$_{5}$Cl$_{7}$,2.5008999999999997,eV,,,,,,,
V$_{3}$S,0.0,eV,,,,,,,
Ba$_{2}$NdAlO$_{5}$,3.6856,eV,,,,,,,
Sr$_{2}$MnCu$_{2}$(SO)$_{2}$,0.03080000000000016,eV,,,,,,,
CsNb(PO$_{4}$)$_{2}$,2.5389,eV,,,,,,,
SbS(BrF$_{2}$)$_{3}$,2.532,eV,,,,,,,
PNF$_{2}$,5.147200000000001,eV,,,,,,,
HoH$_{16}$C$_{2}$S$_{2}$NO$_{12}$,5.4777,eV,,,,,,,
SrC$_{4}$S$_{4}$N$_{2}$(O$_{2}$F$_{3}$)$_{4}$,6.240200000000001,eV,,,,,,,
Nd(CoB)$_{2}$,0.0,eV,,,,,,,
Na$_{2}$Zn$_{3}$(SiO$_{4}$)$_{2}$,2.7950999999999997,eV,,,,,,,
CsFeF$_{3}$,3.2787,eV,,,,,,,
LiEr(PO$_{3}$)$_{4}$,5.7413,eV,,,,,,,
NaNb(OF)$_{2}$,3.1327,eV,,,,,,,
Ba$_{2}$CoF$_{6}$,0.0,eV,,,,,,,
CS$_{4}$N$_{2}$(OF)$_{3}$,1.3596,eV,,,,,,,
K$_{14}$Fe$_{4}$O$_{13}$,2.2344,eV,,,,,,,
ZnS,2.0318000000000005,eV,,,,,,,
ScBiO$_{3}$,2.6869,eV,,,,,,,
Sr$_{7}$Zr(Si$_{2}$O$_{7}$)$_{3}$,4.4268,eV,,,,,,,
Zr$_{3}$Cd$_{3}$AgF$_{20}$,0.0,eV,,,,,,,
K$_{2}$Zn(SiO$_{3}$)$_{2}$,3.9191000000000003,eV,,,,,,,
Rb$_{3}$Ti$_{3}$(PO$_{4}$)$_{5}$,2.5992,eV,,,,,,,
Li$_{4}$CO$_{4}$,5.351,eV,,,,,,,
BaNiF$_{4}$,4.6572,eV,,,,,,,
Eu$_{2}$SiCl$_{2}$O$_{3}$,0.6426999999999996,eV,,,,,,,
CSe$_{2}$S$_{2}$N$_{2}$(OF)$_{3}$,1.4531,eV,,,,,,,
KGdPdO$_{3}$,0.06899999999999995,eV,,,,,,,
BaSi$_{2}$CuO$_{6}$,0.0,eV,,,,,,,
Sr(PO$_{3}$)$_{2}$,5.806,eV,,,,,,,
AsIF$_{12}$,0.6263999999999998,eV,,,,,,,
Na$_{2}$CaSiO$_{4}$,3.3360999999999996,eV,,,,,,,
Hf$_{2}$P$_{2}$O$_{9}$,4.9036,eV,,,,,,,
CrCuS$_{2}$,0.0,eV,,,,,,,
La$_{2}$CO$_{5}$,3.9487000000000005,eV,,,,,,,
SiO$_{2}$,1.2528,eV,,,,,,,
Ba$_{13}$Dy$_{8}$Zn$_{4}$Pt$_{4}$O$_{37}$,2.2975000000000003,eV,,,,,,,
Ba$_{2}$UCu$_{2}$S$_{5}$,0.0038000000000000256,eV,,,,,,,
KMnF$_{3}$,2.7802,eV,,,,,,,
Na$_{2}$Cd(SiO$_{3}$)$_{2}$,2.87,eV,,,,,,,
LiHo(PO$_{3}$)$_{4}$,5.9285000000000005,eV,,,,,,,
SrCuH$_{6}$O$_{5}$,0.6365000000000001,eV,,,,,,,
V(MoS$_{2}$)$_{2}$,0.0,eV,,,,,,,
CsAu(SO$_{4}$)$_{2}$,1.5857,eV,,,,,,,
Rb$_{2}$FeF$_{5}$,3.693,eV,,,,,,,
ZnS,2.0205,eV,,,,,,,
BaSi$_{2}$(BO$_{4}$)$_{2}$,5.5233,eV,,,,,,,
K$_{2}$S$_{2}$NO$_{7}$,1.9921,eV,,,,,,,
TcO$_{3}$F,2.4444999999999997,eV,,,,,,,
NaVF$_{3}$,0.6925000000000003,eV,,,,,,,
K$_{6}$NaAu$_{2}$IO$_{8}$,1.8901,eV,,,,,,,
KBi$_{6}$BrO$_{9}$,2.3298,eV,,,,,,,
SiO$_{2}$,4.0687,eV,,,,,,,
Mg$_{2}$PClO$_{4}$,5.0406,eV,,,,,,,
SrVZnP$_{2}$O$_{9}$,2.3945,eV,,,,,,,
K$_{3}$WF$_{6}$,2.6188000000000002,eV,,,,,,,
Nd$_{6}$Si$_{4}$S$_{17}$,2.5163,eV,,,,,,,
SbS$_{7}$IF$_{6}$,1.9994,eV,,,,,,,
Ce$_{3}$Si$_{2}$S$_{8}$I,0.1457000000000006,eV,,,,,,,
ZnS,2.0646000000000004,eV,,,,,,,
SiO$_{2}$,1.7691,eV,,,,,,,
Ba$_{3}$Sb$_{4}$O,0.3586999999999998,eV,,,,,,,
Na$_{2}$V$_{3}$O$_{7}$,2.5022,eV,,,,,,,
Rb$_{3}$NbH$_{4}$(C$_{2}$O$_{5}$)$_{3}$,3.1076,eV,,,,,,,
Te$_{6}$As$_{4}$C$_{3}$(NF$_{8}$)$_{3}$,2.1515,eV,,,,,,,
NaLiTi$_{3}$O$_{7}$,2.6233999999999997,eV,,,,,,,
Na$_{3}$TmSi$_{2}$O$_{7}$,3.9610000000000003,eV,,,,,,,
CaNb$_{2}$(P$_{2}$O$_{7}$)$_{3}$,2.3702,eV,,,,,,,
K$_{2}$Th(CuS$_{2}$)$_{2}$,1.1260000000000003,eV,,,,,,,
Sr$_{5}$(ReO$_{6}$)$_{2}$,2.1062000000000003,eV,,,,,,,
YbNaCO$_{3}$F$_{2}$,0.6712,eV,,,,,,,
As$_{2}$O$_{5}$,1.3437,eV,,,,,,,
S$_{4}$IN$_{3}$Cl$_{2}$,1.6235,eV,,,,,,,
S$_{5}$N$_{2}$(O$_{2}$F)$_{4}$,4.3178,eV,,,,,,,
Ba$_{3}$AlF$_{9}$,6.4405,eV,,,,,,,
CsLi$_{3}$F$_{4}$,6.7384,eV,,,,,,,
PNF$_{2}$,5.484299999999999,eV,,,,,,,
CeZr$_{6}$(PO$_{4}$)$_{9}$,0.24250000000000016,eV,,,,,,,
NaScB$_{2}$O$_{5}$,4.9199,eV,,,,,,,
Rb$_{3}$Pr$_{3}$(PS$_{4}$)$_{4}$,2.2855999999999996,eV,,,,,,,
Sr$_{3}$U(Te$_{2}$O$_{7}$)$_{2}$,1.9835000000000003,eV,,,,,,,
Te$_{2}$S(O$_{2}$F$_{3}$)$_{2}$,4.0102,eV,,,,,,,
Ba$_{4}$Fe$_{2}$S$_{4}$I$_{5}$,0.0,eV,,,,,,,
CeTl$_{5}$Cu$_{2}$(NO$_{2}$)$_{12}$,0.0,eV,,,,,,,
Al(HO)$_{3}$,5.0602,eV,,,,,,,
RbTh$_{3}$F$_{13}$,6.440099999999999,eV,,,,,,,
KRb$_{2}$NiF$_{6}$,0.0,eV,,,,,,,
La$_{10}$Si$_{8}$O$_{3}$,0.0,eV,,,,,,,
Sr$_{2}$AlCO$_{3}$F$_{5}$,5.424600000000001,eV,,,,,,,
La$_{3}$Ti$_{5}$Al$_{15}$O$_{37}$,1.3978000000000002,eV,,,,,,,
Na$_{4}$Zr$_{2}$(SiO$_{4}$)$_{3}$,4.3103,eV,,,,,,,
Sr(ClO$_{2}$)$_{2}$,2.3952,eV,,,,,,,
Na$_{3}$OsO$_{5}$,0.0889000000000002,eV,,,,,,,
Ag$_{2}$H$_{3}$IO$_{6}$,0.6966000000000001,eV,,,,,,,
Ba(Mo$_{3}$O$_{5}$)$_{2}$,0.03359999999999985,eV,,,,,,,
K$_{3}$Co$_{2}$F$_{7}$,2.3726000000000003,eV,,,,,,,
Ba$_{6}$Er$_{2}$Ga$_{4}$O$_{15}$,3.5263,eV,,,,,,,
KZrH$_{2}$OF$_{5}$,5.8343,eV,,,,,,,
SiO$_{2}$,4.721699999999999,eV,,,,,,,
VS$_{2}$Br$_{2}$N$_{3}$,0.7769,eV,,,,,,,
Rb$_{2}$GdGa(SiO$_{3}$)$_{4}$,3.3463,eV,,,,,,,
EuLi(PO$_{3}$)$_{4}$,4.0797,eV,,,,,,,
SnO$_{2}$,0.8384,eV,,,,,,,
Na$_{5}$AlP$_{2}$(O$_{4}$F)$_{2}$,4.6654,eV,,,,,,,
LiY$_{6}$B$_{3}$O$_{14}$,4.665100000000001,eV,,,,,,,
KRe$_{2}$O$_{4}$F$_{7}$,3.0237,eV,,,,,,,
ZrCoF$_{6}$,0.0,eV,,,,,,,
Re$_{2}$S$_{2}$NCl$_{11}$,0.37489999999999996,eV,,,,,,,
K$_{3}$Y(BO$_{3}$)$_{2}$,3.1813000000000002,eV,,,,,,,
SiO$_{2}$,4.3008,eV,,,,,,,
C$_{3}$S$_{2}$ClO$_{2}$F$_{3}$,3.6281999999999996,eV,,,,,,,
YbNa$_{2}$C$_{2}$O$_{6}$F,0.0,eV,,,,,,,
ZrCrF$_{6}$,0.0,eV,,,,,,,
Sr$_{10}$Al$_{2}$ClF$_{25}$,6.4233,eV,,,,,,,
Ca$_{11}$Si$_{4}$SO$_{18}$,3.5249,eV,,,,,,,
Ho$_{3}$CuGeS$_{7}$,1.7591999999999999,eV,,,,,,,
YbSr$_{2}$RuO$_{6}$,0.0,eV,,,,,,,
RbCO$_{2}$,4.245699999999999,eV,,,,,,,
CS$_{2}$NF$_{5}$,2.9184,eV,,,,,,,
OsOF$_{5}$,0.8055000000000001,eV,,,,,,,
CuAg$_{4}$TeO$_{6}$,0.0,eV,,,,,,,
H$_{5}$(NO)$_{3}$,3.2338,eV,,,,,,,
ErCu$_{3}$Se$_{2}$ClO$_{8}$,0.0,eV,,,,,,,
Sr$_{2}$FeWO$_{6}$,0.0,eV,,,,,,,
SiO$_{2}$,5.5742,eV,,,,,,,
EuPH$_{5}$CO$_{7}$,0.0,eV,,,,,,,
Na$_{4}$MgC$_{6}$(SN)$_{6}$,4.1635,eV,,,,,,,
Sm$_{3}$RuO$_{7}$,0.043400000000000105,eV,,,,,,,
RbAg(NO$_{3}$)$_{2}$,2.4757,eV,,,,,,,
Sm$_{3}$Si$_{2}$S$_{8}$Br,2.6144999999999996,eV,,,,,,,
Ca$_{2}$Th(Si$_{2}$O$_{5}$)$_{4}$,4.9887999999999995,eV,,,,,,,
LiCaCoF$_{6}$,0.0,eV,,,,,,,
K$_{5}$Tl$_{3}$O,0.1221000000000001,eV,,,,,,,
CsBC$_{3}$NOF$_{9}$,2.5838,eV,,,,,,,
AlPS$_{4}$,0.0,eV,,,,,,,
KC(NO$_{2}$)$_{2}$,1.9925,eV,,,,,,,
ZnS,2.0250000000000004,eV,,,,,,,
SiO$_{2}$,4.1331,eV,,,,,,,
MgAs$_{2}$(XeF$_{5}$)$_{4}$,2.878,eV,,,,,,,
MgAlPO$_{5}$,4.9741,eV,,,,,,,
KNaSO$_{4}$,5.0709,eV,,,,,,,
KGa(PO$_{3}$)$_{4}$,4.5523,eV,,,,,,,
SiO$_{2}$,5.6138,eV,,,,,,,
Co$_{2}$SiO$_{4}$,2.181,eV,,,,,,,
Sm$_{3}$NbSe$_{3}$O$_{4}$,1.6340000000000003,eV,,,,,,,
BaU(SiO$_{4}$)$_{2}$,2.3858999999999995,eV,,,,,,,
LiIO$_{3}$,3.5575,eV,,,,,,,
PH$_{6}$C$_{2}$S$_{2}$N(ClO$_{2}$)$_{2}$,3.8232999999999997,eV,,,,,,,
Rb$_{7}$(FeO$_{4}$)$_{2}$,0,eV,,,,,,,
S$_{5}$N$_{2}$ClO$_{6}$,1.3105000000000002,eV,,,,,,,
K$_{2}$Zn(Si$_{2}$O$_{5}$)$_{2}$,4.2665,eV,,,,,,,
BaCu(SeO$_{3}$)$_{2}$,0.5648,eV,,,,,,,
Dy$_{2}$O$_{3}$,3.9974999999999996,eV,,,,,,,
Rb$_{2}$AgC$_{3}$(SN)$_{3}$,3.1003,eV,,,,,,,
KNaS$_{2}$O$_{7}$,5.218100000000001,eV,,,,,,,
SrZr$_{4}$(PO$_{4}$)$_{6}$,4.3718,eV,,,,,,,
C$_{12}$SeF$_{10}$,2.7508,eV,,,,,,,
ZnS,2.032,eV,,,,,,,
BaF$_{2}$,6.8574,eV,,,,,,,
LuPO$_{4}$,5.9929,eV,,,,,,,
K$_{2}$SmP$_{2}$S$_{7}$,2.2159,eV,,,,,,,
SrLiAlF$_{6}$,7.1824,eV,,,,,,,
CsTaPS$_{6}$,1.7487,eV,,,,,,,
KCu$_{3}$S$_{2}$ClO$_{9}$,0.0,eV,,,,,,,
K$_{6}$Si$_{2}$S$_{6}$O,3.1497,eV,,,,,,,
KGd(PO$_{3}$)$_{4}$,3.2157,eV,,,,,,,
U(SiRh)$_{2}$,0.0,eV,,,,,,,
Na$_{3}$Dy(Si$_{2}$O$_{5}$)$_{3}$,4.507000000000001,eV,,,,,,,
Na$_{10}$Be$_{4}$Si$_{4}$O$_{17}$,3.9402999999999997,eV,,,,,,,
Na$_{3}$Sc$_{2}$(PO$_{4}$)$_{3}$,4.7095,eV,,,,,,,
Sr$_{9}$Zn$_{4}$(CuO$_{7}$)$_{2}$,1.7883999999999998,eV,,,,,,,
Ce(BO$_{2}$)$_{3}$,0.2538999999999998,eV,,,,,,,
Cs$_{3}$KRe$_{6}$C$_{6}$(S$_{4}$N$_{3}$)$_{2}$,2.1868000000000003,eV,,,,,,,
Sb$_{4}$IrC$_{5}$ClO$_{5}$F$_{22}$,2.9356999999999998,eV,,,,,,,
CaNb$_{2}$Bi$_{2}$O$_{9}$,0,eV,,,,,,,
Ce$_{10}$Si$_{8}$O$_{3}$,0.0,eV,,,,,,,
Na$_{2}$MnF$_{5}$,1.693,eV,,,,,,,
BaNb$_{7}$(P$_{2}$O$_{11}$)$_{3}$,0.0,eV,,,,,,,
RbAl$_{3}$(P$_{3}$O$_{10}$)$_{2}$,5.4378,eV,,,,,,,
BaMo$_{2}$(PO$_{4}$)$_{3}$,0.0,eV,,,,,,,
C$_{2}$SClO$_{4}$F$_{3}$,5.053599999999999,eV,,,,,,,
ZnS,2.0374,eV,,,,,,,
SbTe(ClF$_{2}$)$_{3}$,3.747,eV,,,,,,,
Sm$_{3}$OsO$_{7}$,0.061799999999999855,eV,,,,,,,
Nb$_{2}$Te$_{4}$Cl$_{10}$O,1.181,eV,,,,,,,
Al$_{2}$Tl$_{3}$(PO$_{4}$)$_{3}$,3.4349,eV,,,,,,,
BaH$_{4}$(CO$_{3}$)$_{2}$,3.4081,eV,,,,,,,
MoF$_{5}$,2.0375,eV,,,,,,,
NdSeClO$_{3}$,4.1926000000000005,eV,,,,,,,
K$_{2}$Zn(SO$_{4}$)$_{2}$,4.398499999999999,eV,,,,,,,
CuC$_{2}$S$_{2}$(OF)$_{6}$,0.2384,eV,,,,,,,
Ca$_{9}$In(PO$_{4}$)$_{7}$,4.3214,eV,,,,,,,
La$_{4}$Mn$_{5}$(Si$_{2}$O$_{11}$)$_{2}$,0.9863,eV,,,,,,,
ZnS,2.0206999999999997,eV,,,,,,,
ZnS,2.0223,eV,,,,,,,
Pu(SeO$_{3}$)$_{2}$,0.05580000000000007,eV,,,,,,,
LuMn$_{2}$O$_{5}$,1.0698000000000003,eV,,,,,,,
SiO$_{2}$,4.5916,eV,,,,,,,
Na$_{4}$Ti$_{5}$O$_{12}$,2.4965,eV,,,,,,,
Na$_{2}$UF$_{6}$,0.3066,eV,,,,,,,
La$_{3}$CuS$_{3}$O$_{2}$,1.287,eV,,,,,,,
Sn(SeO$_{3}$)$_{2}$,3.0747,eV,,,,,,,
WS$_{2}$(NCl)$_{3}$,0.8793,eV,,,,,,,
Na$_{2}$Mn$_{2}$Si$_{2}$O$_{7}$,2.7027000000000005,eV,,,,,,,
SrZn(SeO$_{3}$)$_{2}$,4.3754,eV,,,,,,,
Rb$_{2}$CO$_{3}$,3.2555,eV,,,,,,,
Cs$_{4}$Nb$_{2}$Si$_{8}$O$_{23}$,3.7337999999999996,eV,,,,,,,
BaLa(BiS$_{3}$)$_{2}$,0.6691000000000003,eV,,,,,,,
ThB$_{4}$Mo,0.0,eV,,,,,,,
SiO$_{2}$,5.484,eV,,,,,,,
ReO$_{2}$F$_{3}$,3.335,eV,,,,,,,
LiAlSiH$_{2}$O$_{5}$,1.7217999999999998,eV,,,,,,,
S$_{4}$N$_{2}$O$_{3}$F,1.3392,eV,,,,,,,
H$_{2}$CO,6.4213000000000005,eV,,,,,,,
Tm$_{2}$Ru$_{2}$O$_{7}$,0.0,eV,,,,,,,
K$_{2}$Nd$_{2}$IrO$_{7}$,0.2898999999999998,eV,,,,,,,
SrNiF$_{6}$,1.6631,eV,,,,,,,
Sr$_{4}$GaN$_{3}$O,1.1305,eV,,,,,,,
NaClO$_{3}$,5.7061,eV,,,,,,,
TbRb(PO$_{3}$)$_{4}$,5.492,eV,,,,,,,
H$_{6}$C$_{3}$SN$_{3}$O$_{2}$F$_{3}$,2.1838,eV,,,,,,,
Cu$_{2}$H$_{10}$C$_{6}$S$_{3}$N$_{4}$,2.7198,eV,,,,,,,
Na$_{2}$Ca$_{3}$Al$_{2}$F$_{14}$,7.143,eV,,,,,,,
SrGeO$_{3}$,3.0028,eV,,,,,,,
YbPS$_{4}$,0.0,eV,,,,,,,
BaHg$_{2}$(ClO)$_{2}$,1.6109999999999998,eV,,,,,,,
SiO$_{2}$,5.5865,eV,,,,,,,
RbAu(SO$_{4}$)$_{2}$,1.7149,eV,,,,,,,
Ba$_{2}$B$_{5}$ClO$_{9}$,5.2417,eV,,,,,,,
LiZnPO$_{4}$,4.1939,eV,,,,,,,
InAg$_{3}$(PO$_{4}$)$_{2}$,1.2178,eV,,,,,,,
Nd$_{2}$SnS$_{5}$,0.0,eV,,,,,,,
Re$_{2}$(HgO$_{2}$)$_{5}$,1.2845,eV,,,,,,,
S,2.2718,eV,,,,,,,
ZnS,2.0639,eV,,,,,,,
BaNb$_{10}$SiO$_{19}$,0.014800000000000146,eV,,,,,,,
ScBiO$_{3}$,2.6630999999999996,eV,,,,,,,
RbH$_{4}$SNO$_{4}$,5.0051,eV,,,,,,,
CrHg$_{5}$S$_{2}$O$_{5}$,1.6945999999999999,eV,,,,,,,
ZnS,2.0276000000000005,eV,,,,,,,
ZnGa$_{3}$N$_{3}$O,1.1263999999999998,eV,,,,,,,
ZnS,2.0195,eV,,,,,,,
Ba$_{6}$Ti$_{5}$S$_{15}$O,0.05510000000000037,eV,,,,,,,
ZnS,2.0251,eV,,,,,,,
Nd$_{2}$Ti$_{2}$O$_{7}$,2.7396999999999996,eV,,,,,,,
Si(PbO$_{2}$)$_{2}$,2.4895,eV,,,,,,,
Na$_{8}$Fe$_{2}$O$_{7}$,2.3378,eV,,,,,,,
Tl$_{2}$C$_{3}$O$_{4}$,2.9206000000000003,eV,,,,,,,
SiO$_{2}$,5.7383999999999995,eV,,,,,,,
Na(OsO$_{3}$)$_{2}$,0.0,eV,,,,,,,
Y$_{2}$CrS$_{4}$,0.0,eV,,,,,,,
Zn$_{4}$As$_{2}$O$_{9}$,1.62,eV,,,,,,,
NaReO$_{4}$,3.6151999999999997,eV,,,,,,,
La$_{2}$Si$_{2}$O$_{7}$,4.3649000000000004,eV,,,,,,,
Na$_{3}$Nd$_{14}$(RuO$_{6}$)$_{6}$,1.5222999999999995,eV,,,,,,,
AlSCl$_{7}$,2.4763,eV,,,,,,,
Zn$_{8}$B$_{3}$H$_{3}$O$_{14}$,2.4989,eV,,,,,,,
NaSr$_{3}$BiO$_{6}$,1.7251000000000003,eV,,,,,,,
H$_{12}$RhC$_{8}$NO$_{6}$,1.0661999999999998,eV,,,,,,,
Sr$_{2}$Cu$_{2}$Te(BrO$_{3}$)$_{2}$,0.008599999999999941,eV,,,,,,,
KDy(SeO$_{4}$)$_{2}$,3.4722,eV,,,,,,,
SiCu$_{2}$PbS$_{4}$,1.3388,eV,,,,,,,
Na$_{4}$Cu(AsO$_{4}$)$_{2}$,0.6881000000000002,eV,,,,,,,
W$_{10}$O$_{29}$,0,eV,,,,,,,
SiO$_{2}$,1.2338,eV,,,,,,,
SrMo$_{2}$(AsO$_{6}$)$_{2}$,2.6928,eV,,,,,,,
Na$_{4}$Sc$_{2}$Si$_{4}$O$_{13}$,4.6001,eV,,,,,,,
Sr$_{2}$Cu(BiO$_{3}$)$_{2}$,0.0,eV,,,,,,,
Na$_{2}$Pr$_{4}$Cl$_{9}$O$_{2}$,0.6162999999999998,eV,,,,,,,
Hg$_{3}$As$_{8}$(S$_{4}$Br$_{3}$)$_{2}$,2.0132,eV,,,,,,,
Gd$_{3}$Sc$_{2}$(GaO$_{4}$)$_{3}$,0.49250000000000016,eV,,,,,,,
Sn$_{2}$PClO$_{4}$,2.5705999999999998,eV,,,,,,,
Rb$_{6}$Si$_{10}$O$_{23}$,4.2187,eV,,,,,,,
SnPO$_{3}$F,3.6818000000000004,eV,,,,,,,
K$_{2}$PO$_{4}$,3.2014,eV,,,,,,,
Ag$_{3}$AsS$_{3}$,1.6989,eV,,,,,,,
MnSbS$_{2}$Cl,0.8681999999999999,eV,,,,,,,
BaLiZr$_{2}$F$_{11}$,5.7451,eV,,,,,,,
BaAlF$_{5}$,7.199400000000001,eV,,,,,,,
H$_{8}$C$_{3}$S$_{2}$,3.9735,eV,,,,,,,
Li$_{2}$Mo$_{4}$O$_{13}$,0.0,eV,,,,,,,
LuSF,2.6140999999999996,eV,,,,,,,
Na$_{2}$Cd$_{3}$(P$_{2}$O$_{7}$)$_{2}$,3.0513000000000003,eV,,,,,,,
Rb$_{2}$Ag$_{2}$GeS$_{4}$,1.907,eV,,,,,,,
In$_{6}$S$_{7}$,0.31849999999999934,eV,,,,,,,
Sr$_{2}$CaCu$_{2}$(BiO$_{4}$)$_{2}$,0,eV,,,,,,,
ZnS,2.0047,eV,,,,,,,
EuTiClO$_{3}$,0.0,eV,,,,,,,
Na$_{2}$Th(PO$_{4}$)$_{2}$,4.9443,eV,,,,,,,
CsZr(NO$_{3}$)$_{5}$,3.4458,eV,,,,,,,
P$_{4}$PtF$_{12}$,4.9313,eV,,,,,,,
Na$_{2}$Sr$_{7}$Al$_{6}$F$_{34}$,6.9463,eV,,,,,,,
K$_{6}$Be$_{4}$C$_{6}$O$_{19}$,4.7853,eV,,,,,,,
BaNb$_{2}$Bi$_{2}$O$_{9}$,2.2153,eV,,,,,,,
Na$_{2}$CuSbS$_{3}$,1.2330999999999999,eV,,,,,,,
LiAsS$_{2}$,1.0664000000000002,eV,,,,,,,
ZnBi$_{2}$B$_{2}$O$_{7}$,2.5197999999999996,eV,,,,,,,
K$_{2}$FeF$_{5}$,3.6818999999999997,eV,,,,,,,
ErCuTe$_{2}$ClO$_{6}$,0.39270000000000005,eV,,,,,,,
C$_{2}$S(OF)$_{4}$,6.1791,eV,,,,,,,
La$_{7}$(RuO$_{6}$)$_{3}$,0.0235000000000003,eV,,,,,,,
SiO$_{2}$,5.3872,eV,,,,,,,
Pr$_{3}$SiCuS$_{7}$,1.5888,eV,,,,,,,
Pr$_{9}$(SbO)$_{5}$,0.0,eV,,,,,,,
Li$_{2}$Si$_{3}$O$_{7}$,5.2253,eV,,,,,,,
Nb$_{2}$Tl$_{5}$S$_{4}$Cl$_{9}$,1.6261,eV,,,,,,,
KCuCO$_{3}$F,0.0,eV,,,,,,,
Te$_{2}$SO$_{7}$,3.3025,eV,,,,,,,
Al(IO$_{3}$)$_{3}$,3.3350000000000004,eV,,,,,,,
NaSmGeO$_{4}$,3.5475999999999996,eV,,,,,,,
Tb$_{5}$Se$_{2}$Cl$_{3}$O$_{10}$,3.7344999999999997,eV,,,,,,,
Yb$_{5}$Li$_{2}$B$_{3}$O$_{13}$,0.020999999999999998,eV,,,,,,,
TlAsF$_{6}$,4.6463,eV,,,,,,,
K$_{2}$CaP$_{2}$O$_{7}$,4.8824000000000005,eV,,,,,,,
S,2.5404,eV,,,,,,,
Hg$_{2}$SeO$_{3}$,2.3109,eV,,,,,,,
KH$_{3}$C$_{2}$S$_{2}$O,2.5354,eV,,,,,,,
PH$_{9}$AuC$_{3}$ClO$_{3}$,3.3723,eV,,,,,,,
Ca$_{5}$Nb$_{5}$O$_{17}$,0,eV,,,,,,,
RbEr$_{3}$F$_{10}$,7.2819,eV,,,,,,,
Na$_{2}$P$_{2}$PbO$_{7}$,4.2885,eV,,,,,,,
VF$_{2}$,2.2511,eV,,,,,,,
Ta$_{2}$S,0.0,eV,,,,,,,
RbNa$_{7}$(CoO$_{3}$)$_{2}$,1.0163,eV,,,,,,,
Ca$_{3}$Cu$_{3}$(AsO$_{4}$)$_{4}$,0.5670999999999999,eV,,,,,,,
Li$_{2}$Te$_{2}$O$_{5}$,3.1057999999999995,eV,,,,,,,
Dy$_{2}$Te$_{5}$O$_{13}$,2.9867,eV,,,,,,,
AlPO$_{4}$,5.671200000000001,eV,,,,,,,
Er$_{3}$SiSe$_{2}$O$_{10}$F,4.0849,eV,,,,,,,
H$_{24}$OsC$_{8}$(NF$_{3}$)$_{2}$,0.17430000000000012,eV,,,,,,,
Pb$_{2}$CO$_{3}$F$_{2}$,3.4728,eV,,,,,,,
C$_{37}$F$_{21}$,2.018,eV,,,,,,,
EuKPdO$_{3}$,9.000000000001229E-4,eV,,,,,,,
Sb$_{4}$RuC$_{6}$(O$_{3}$F$_{11}$)$_{2}$,4.4456,eV,,,,,,,
Na$_{2}$Si$_{4}$Cu$_{2}$H$_{4}$O$_{13}$,0.18369999999999997,eV,,,,,,,
BaSnHgS$_{4}$,1.8454,eV,,,,,,,
LaSeO$_{3}$F,3.7498,eV,,,,,,,
Ba$_{2}$Li$_{3}$(PO$_{3}$)$_{7}$,5.451099999999999,eV,,,,,,,
SiO$_{2}$,5.3454,eV,,,,,,,
Ca$_{3}$Zn$_{3}$(TeO$_{6}$)$_{2}$,1.8503999999999996,eV,,,,,,,
Li$_{2}$ZnSn$_{3}$O$_{8}$,1.9407,eV,,,,,,,
BaTi$_{2}$O$_{5}$,2.1457,eV,,,,,,,
TaP$_{4}$S$_{4}$Cl$_{5}$,1.8505000000000003,eV,,,,,,,
NaTl$_{2}$MoF$_{6}$,3.0026,eV,,,,,,,
ZnAs$_{2}$C$_{12}$(NF)$_{12}$,4.0456,eV,,,,,,,
KC(NO$_{2}$)$_{3}$,2.1635,eV,,,,,,,
Rb$_{2}$U(SiO$_{3}$)$_{4}$,2.5082999999999998,eV,,,,,,,
NaH$_{12}$C$_{4}$S$_{2}$BrO$_{2}$,4.3026,eV,,,,,,,
Na$_{2}$TiSiO$_{5}$,3.2081,eV,,,,,,,
Rb$_{2}$ZnO$_{2}$,1.5006,eV,,,,,,,
Sm$_{3}$CuGeS$_{7}$,1.7739000000000003,eV,,,,,,,
Li$_{2}$Pr(NO$_{3}$)$_{5}$,3.6557,eV,,,,,,,
Ba$_{2}$Zn$_{3}$(PO$_{3}$)$_{10}$,4.808199999999999,eV,,,,,,,
Si$_{2}$Ge$_{3}$P$_{6}$O$_{25}$,4.0974,eV,,,,,,,
Er$_{2}$SiO$_{5}$,4.754099999999999,eV,,,,,,,
EuCu$_{2}$SnS$_{4}$,0.008000000000000007,eV,,,,,,,
YbH$_{7}$C$_{3}$O$_{8}$,0.0,eV,,,,,,,
AsCS$_{3}$N$_{2}$F$_{11}$,3.2632000000000003,eV,,,,,,,
Er$_{2}$SiSO$_{4}$,2.8061000000000007,eV,,,,,,,
CIN$_{2}$(O$_{2}$F)$_{3}$,3.3350999999999997,eV,,,,,,,
OsC$_{4}$(ClO$_{2}$)$_{2}$,2.3422,eV,,,,,,,
Np(IO$_{3}$)$_{4}$,0.22389999999999954,eV,,,,,,,
ZrNi,0.0,eV,,,,,,,
Cd$_{3}$(BO$_{3}$)$_{2}$,1.4544000000000001,eV,,,,,,,
ZnS,2.0282,eV,,,,,,,
NaBeSi$_{3}$HO$_{8}$,4.9780999999999995,eV,,,,,,,
Li$_{6}$Cu(B$_{2}$O$_{5}$)$_{2}$,0.7482,eV,,,,,,,
CaTiO$_{3}$,2.4775,eV,,,,,,,
Ba$_{3}$In$_{2}$Br$_{2}$O$_{5}$,1.2907000000000002,eV,,,,,,,
ZnS,2.0467,eV,,,,,,,
OsCl$_{4}$O,1.0046,eV,,,,,,,
MgTlAs(H$_{6}$O$_{5}$)$_{2}$,4.3811,eV,,,,,,,
NaCSN,4.0366,eV,,,,,,,
Na$_{2}$Be(SiO$_{3}$)$_{2}$,5.055,eV,,,,,,,
Li$_{3}$Ga(BO$_{3}$)$_{2}$,4.1585,eV,,,,,,,
Dy$_{9}$(SbO)$_{5}$,0.0,eV,,,,,,,
Th$_{2}$P$_{2}$O$_{9}$,5.0733999999999995,eV,,,,,,,
LiBH$_{15}$C$_{5}$NO$_{3}$,4.0222999999999995,eV,,,,,,,
Li$_{3}$AlF$_{6}$,7.915100000000001,eV,,,,,,,
BaTeO$_{3}$,3.1676,eV,,,,,,,
Nd$_{3}$S$_{2}$Cl$_{5}$,3.1773000000000002,eV,,,,,,,
Na$_{2}$TiF$_{6}$,4.7468,eV,,,,,,,
MgH$_{8}$C$_{2}$S$_{2}$(NO$_{2}$)$_{2}$,4.3106,eV,,,,,,,
SiO$_{2}$,2.4692,eV,,,,,,,
BaCuCO$_{3}$F$_{2}$,0.4352999999999998,eV,,,,,,,
Sn$_{2}$P$_{2}$O$_{7}$,3.6278,eV,,,,,,,
CO$_{2}$,6.6688,eV,,,,,,,
Ba$_{3}$Al$_{2}$Cu$_{2}$F$_{16}$,0.5436000000000001,eV,,,,,,,
Ba$_{3}$In(BO$_{2}$)$_{9}$,4.7243,eV,,,,,,,
Na$_{3}$Y(BO$_{3}$)$_{2}$,3.6611000000000002,eV,,,,,,,
CaS$_{2}$(ClO$_{3}$)$_{2}$,4.6536,eV,,,,,,,
Ba$_{2}$NiF$_{6}$,4.5169,eV,,,,,,,
SiO$_{2}$,0.0,eV,,,,,,,
KCuF$_{3}$,0.0,eV,,,,,,,
SrGa$_{2}$B$_{2}$O$_{7}$,3.9684999999999997,eV,,,,,,,
K$_{2}$OsCBr$_{5}$O,0.5206,eV,,,,,,,
Nb$_{2}$O$_{5}$,1.5321,eV,,,,,,,
Sr$_{4}$Br$_{6}$O,4.2196,eV,,,,,,,
P$_{4}$S(NF)$_{6}$,2.2497,eV,,,,,,,
Rb$_{2}$GeO$_{3}$,3.0091,eV,,,,,,,
TeC$_{8}$(OF$_{3}$)$_{4}$,3.5902000000000003,eV,,,,,,,
Na$_{2}$AlCoF$_{7}$,3.1748000000000003,eV,,,,,,,
Pr$_{10}$S$_{14}$O,1.8415000000000004,eV,,,,,,,
NdTeBrO$_{3}$,0.3353999999999999,eV,,,,,,,
CsSb$_{2}$F$_{11}$,4.4228,eV,,,,,,,
NaNb$_{4}$Tl$_{3}$P$_{2}$O$_{17}$,2.4915000000000003,eV,,,,,,,
PrP$_{3}$(HO$_{2}$)$_{6}$,5.1791,eV,,,,,,,