formula,Property Band Gap,Property Band Gap units,Property Band gap,Property Band gap units,Temperature (Property Band gap),Temperature (Property Band gap) units,Property Color,Temperature (Property Color),Temperature (Property Color) units
HoSi,0.0,eV,,,,,,,
Mo,0.0,eV,,,,,,,
Tb$_{6}$FeSb$_{2}$,0.0,eV,,,,,,,
ErAgTe$_{2}$,0.8967,eV,,,,,,,
YAgTe$_{2}$,0.8989000000000003,eV,,,,,,,
HoAgTe$_{2}$,0.9017999999999997,eV,,,,,,,
Ba$_{3}$CrN$_{3}$,0.0,eV,,,,,,,
Sr$_{3}$CrN$_{3}$,0.0,eV,,,,,,,
ScAgSe$_{2}$,0.6802000000000001,eV,,,,,,,
ErIn$_{3}$,0.0,eV,,,,,,,
GeS,0.5581,eV,,,,,,,
Ba$_{2}$LaRuO$_{6}$,0.23419999999999952,eV,,,,,,,
Ba$_{2}$PrRuO$_{6}$,0.13349999999999973,eV,,,,,,,
LaPIr,0.0,eV,,,,,,,
CePIr,0.0,eV,,,,,,,
PrPIr,0.0,eV,,,,,,,
NdPIr,0.0,eV,,,,,,,
SrPIr,0.0,eV,,,,,,,
KLaSiS$_{4}$,2.6881,eV,,,,,,,
Ba(BeN)$_{2}$,1.1717,eV,,,,,,,
SmAsO$_{4}$,3.6891999999999996,eV,,,,,,,
SmTaO$_{4}$,3.9732000000000003,eV,,,,,,,
TbTaO$_{4}$,4.0492,eV,,,,,,,
TmTaO$_{4}$,4.1068,eV,,,,,,,
YCo$_{2}$,0.0,eV,,,,,,,
HoIn$_{5}$Rh,0.0,eV,,,,,,,
HoAsO$_{4}$,3.609,eV,,,,,,,
LaMgCu$_{2}$,0.0,eV,,,,,,,
NaMgF$_{3}$,6.620699999999999,eV,,,,,,,
Yb$_{4}$Sb$_{3}$,0.0,eV,,,,,,,
ZrGaAu,0.0,eV,,,,,,,
HfGaAu,0.0,eV,,,,,,,
TmAgTe$_{2}$,0.6664000000000003,eV,,,,,,,
CuBS$_{2}$,1.7433999999999994,eV,,,,,,,
HoAgSe$_{2}$,1.2728000000000002,eV,,,,,,,
Yb(FeP$_{3}$)$_{4}$,0.0,eV,,,,,,,
O$_{2}$,1.3309,eV,,,,,,,
BaSiO$_{3}$,3.037699999999999,eV,,,,,,,
ErB$_{6}$,0.0,eV,,,,,,,
Er$_{5}$Sb$_{3}$,0.0,eV,,,,,,,
YAlPd,0.0,eV,,,,,,,
Zr$_{6}$FeSb$_{2}$,0.0,eV,,,,,,,
TbNi$_{4}$B,0.0,eV,,,,,,,
ErNi$_{4}$B,0.0,eV,,,,,,,
Tl$_{9}$Pd$_{13}$,0.0,eV,,,,,,,
Zr$_{6}$Sb$_{2}$Pt,0.0,eV,,,,,,,
Pr$_{2}$CdPd$_{2}$,0.0,eV,,,,,,,
Sm$_{2}$CdPd$_{2}$,0.0,eV,,,,,,,
Dy$_{2}$CdPd$_{2}$,0.0,eV,,,,,,,
SnO$_{2}$,0.9607000000000001,eV,,,,,,,
SnO$_{2}$,0.0,eV,,,,,,,
KAu$_{5}$,0.0,eV,,,,,,,
ScN,0.0,eV,,,,,,,
ScAs,0.0,eV,,,,,,,
ScSb,0.0,eV,,,,,,,
TbCuSe$_{2}$,0.8279999999999994,eV,,,,,,,
PrCo$_{2}$B$_{2}$C,0.0,eV,,,,,,,
PrB$_{2}$Pt$_{2}$C,0,eV,,,,,,,
Ho$_{2}$NiGe$_{6}$,0.0,eV,,,,,,,
SiPt$_{2}$,0.0,eV,,,,,,,
Ti$_{2}$AlC,0.0,eV,,,,,,,
BaTiO$_{3}$,1.7315,eV,,,,,,,
LaMg$_{2}$Pd,0.0,eV,,,,,,,
Fe,0.0,eV,,,,,,,
P,0.0,eV,,,,,,,
Ba$_{2}$HoTaO$_{6}$,3.4479999999999995,eV,,,,,,,
Ba$_{2}$HoTaO$_{6}$,3.3781999999999996,eV,,,,,,,
K$_{2}$SiF$_{6}$,7.1895,eV,,,,,,,
CdGeO$_{3}$,0.8428,eV,,,,,,,
LaCrGe$_{3}$,0.0,eV,,,,,,,
PrCrGe$_{3}$,0.0,eV,,,,,,,
NdCrGe$_{3}$,0.0,eV,,,,,,,
SmCrGe$_{3}$,0.0,eV,,,,,,,
Yb$_{2}$S$_{3}$,0.0,eV,,,,,,,
YSn$_{2}$,0.0,eV,,,,,,,
UCo$_{4}$Sn,0.0,eV,,,,,,,
NaLa$_{2}$TaO$_{6}$,3.9811999999999994,eV,,,,,,,
PrO$_{2}$,0.0,eV,,,,,,,
Ti$_{5}$CuSb$_{2}$,0,eV,,,,,,,
AlPO$_{4}$,4.9643999999999995,eV,,,,,,,
YbZnPd,0.0,eV,,,,,,,
YbZnPt,0.0,eV,,,,,,,
YbZnAu,0.0,eV,,,,,,,
MgSe,2.5476,eV,,,,,,,
MgS,3.3692,eV,,,,,,,
MgTe,2.3186,eV,,,,,,,
MoN,0.0,eV,,,,,,,
TmGe$_{2}$,0.0,eV,,,,,,,
Dy$_{2}$C(NO)$_{2}$,3.9788999999999994,eV,,,,,,,
Tm$_{2}$C(NO)$_{2}$,4.0299,eV,,,,,,,
Zr$_{5}$Si$_{4}$,0,eV,,,,,,,
Yb$_{2}$C(NO)$_{2}$,0.0,eV,,,,,,,
NaSr$_{3}$TaO$_{6}$,3.8787,eV,,,,,,,
EuCuSn$_{2}$,0.01949999999999985,eV,,,,,,,
Sr$_{2}$Si,0.0,eV,,,,,,,
Sr$_{5}$Si$_{3}$,0.0,eV,,,,,,,
SrSi,0.0,eV,,,,,,,
Ba$_{2}$LaTaO$_{6}$,3.6207999999999996,eV,,,,,,,
Ba$_{2}$LaTaO$_{6}$,3.6247999999999996,eV,,,,,,,
ThAl$_{3}$,0.0,eV,,,,,,,
Sc$_{2}$O$_{3}$,3.3899999999999997,eV,,,,,,,
Y$_{2}$O$_{3}$,4.0963,eV,,,,,,,
Tb$_{2}$O$_{3}$,4.1342,eV,,,,,,,
Dy$_{2}$O$_{3}$,4.1995000000000005,eV,,,,,,,
Ho$_{2}$O$_{3}$,4.2394,eV,,,,,,,
Er$_{2}$O$_{3}$,4.1922,eV,,,,,,,
Tm$_{2}$O$_{3}$,4.146,eV,,,,,,,
Lu$_{2}$O$_{3}$,4.0808,eV,,,,,,,
Er(AlGe)$_{2}$,0.0,eV,,,,,,,
LiGa,0.0,eV,,,,,,,
Sc$_{2}$AlC,0.0,eV,,,,,,,
Sc$_{2}$TlC,0.0,eV,,,,,,,
PrGe$_{3}$Rh,0.0,eV,,,,,,,
PrNiGe$_{3}$,0.0,eV,,,,,,,
LuNiPb,0.0,eV,,,,,,,
Mn$_{2}$AlCo,0.0,eV,,,,,,,
Mn$_{2}$CoSi,0.0,eV,,,,,,,
Mn$_{2}$CoSb,0.0,eV,,,,,,,
Cu$_{2}$SnTe$_{3}$,0.0,eV,,,,,,,
YMgAl,0.0,eV,,,,,,,
Zr$_{6}$Al$_{2}$Ni,0.0,eV,,,,,,,
La$_{3}$Ni$_{2}$Sn$_{7}$,0.0,eV,,,,,,,
YAl$_{2}$Ni,0.0,eV,,,,,,,
YAlNi,0.0,eV,,,,,,,
Y$_{3}$AlNi$_{8}$,0.0376000000000003,eV,,,,,,,
NaZnAs,0.3635999999999999,eV,,,,,,,
YN,0.0,eV,,,,,,,
YN,2.075,eV,,,,,,,
Zr,0.0,eV,,,,,,,
TbRh$_{2}$,0.0,eV,,,,,,,
MoPt$_{3}$,0.0,eV,,,,,,,
SrHfO$_{3}$,3.7328,eV,,,,,,,
SrHfO$_{3}$,3.9893,eV,,,,,,,
Cr$_{5}$S$_{6}$,0.0,eV,,,,,,,
CeZn$_{3}$Pd$_{2}$,0.0,eV,,,,,,,
CdO,0.0011999999999999997,eV,,,,,,,
CeSi$_{3}$Ru,0.0,eV,,,,,,,
CeGe$_{3}$Rh,0.0,eV,,,,,,,
CeGe$_{3}$Ir,0,eV,,,,,,,
LaGe$_{3}$Rh,0.0,eV,,,,,,,
PrCoGe$_{3}$,0.0,eV,,,,,,,
Cu$_{2}$As$_{2}$O$_{7}$,0.01429999999999998,eV,,,,,,,
LaN,0.0,eV,,,,,,,
K$_{2}$TiO$_{3}$,3.4121,eV,,,,,,,
Ga$_{2}$O$_{3}$,1.1942,eV,,,,,,,
Eu(ZnSn)$_{2}$,0.0,eV,,,,,,,
Hf$_{2}$CS,0.0,eV,,,,,,,
Cu$_{3}$Sn,0.0,eV,,,,,,,
SrLiGe$_{2}$,0.0,eV,,,,,,,
Li$_{12}$Si$_{7}$,0.0,eV,,,,,,,
BaLiGe$_{2}$,0.0,eV,,,,,,,
HgTe,0.0,eV,,,,,,,
Ca$_{3}$N$_{2}$,1.4782999999999995,eV,,,,,,,
Ca$_{3}$N$_{2}$,1.4171999999999998,eV,,,,,,,
Ca$_{3}$N$_{2}$,1.3734999999999995,eV,,,,,,,
BaAlSi,0.0,eV,,,,,,,
MgS,2.7628000000000004,eV,,,,,,,
BN,4.3877,eV,,,,,,,
BN,4.7783,eV,,,,,,,
Fe$_{3}$C,0.0,eV,,,,,,,
Hf$_{2}$Ag,0.0,eV,,,,,,,
HfAg,0.0,eV,,,,,,,
GdZnGe,0,eV,,,,,,,
YZnGe,0.0,eV,,,,,,,
ZnO,0.0,eV,,,,,,,
TbZnSn$_{2}$,0.1175000000000006,eV,,,,,,,
TbZnSn,0.0,eV,,,,,,,
Ti$_{2}$Pd,0.0,eV,,,,,,,
YbAgO$_{2}$,0.0,eV,,,,,,,
CoSb$_{3}$,0.1651000000000007,eV,,,,,,,
KNaGdNbO$_{5}$,2.7177999999999995,eV,,,,,,,
YMgCu,0.0,eV,,,,,,,
YMgCu$_{4}$,0.0,eV,,,,,,,
PtN,0.0,eV,,,,,,,
AlN,3.2676000000000007,eV,,,,,,,
LaF$_{3}$,4.8604,eV,,,,,,,
Li$_{2}$TiGeO$_{5}$,3.4593000000000003,eV,,,,,,,
SrLuCuS$_{3}$,1.3435000000000006,eV,,,,,,,
ZrTe,0.0,eV,,,,,,,
KRb$_{2}$GaF$_{6}$,5.8894,eV,,,,,,,
Sc$_{6}$ReO$_{12}$,0.08889999999999976,eV,,,,,,,
In$_{6}$ReO$_{12}$,0.004799999999999471,eV,,,,,,,
PrSbO$_{4}$,2.1982999999999997,eV,,,,,,,
NdSbO$_{4}$,2.4052,eV,,,,,,,
SmSbO$_{4}$,2.4656000000000002,eV,,,,,,,
Zn$_{3}$TeO$_{6}$,1.0627999999999997,eV,,,,,,,
CeSe$_{2}$,0,eV,,,,,,,
LuCuSn,0.0,eV,,,,,,,
YCuSn,0.0,eV,,,,,,,
ScCuSn,0.0,eV,,,,,,,
PrZnPO,1.1665,eV,,,,,,,
CeZnPO,0.0,eV,,,,,,,
Mg$_{2}$Pt,0.0,eV,,,,,,,
CdSb,0.34550000000000036,eV,,,,,,,
Ag$_{2}$Te$_{2}$O$_{7}$,0.0,eV,,,,,,,
GdCuGe,0,eV,,,,,,,
YMg$_{2}$Cu$_{9}$,0.0,eV,,,,,,,
PrMg$_{2}$Cu$_{9}$,0.0,eV,,,,,,,
NdMg$_{2}$Cu$_{9}$,0.0,eV,,,,,,,
SmMg$_{2}$Cu$_{9}$,0.0,eV,,,,,,,
EuMg$_{2}$Cu$_{9}$,0.006099999999999994,eV,,,,,,,
DyMg$_{2}$Cu$_{9}$,0.0,eV,,,,,,,
HoMg$_{2}$Cu$_{9}$,0.022700000000000387,eV,,,,,,,
YbMg$_{2}$Cu$_{9}$,0.0,eV,,,,,,,
K$_{3}$GdF$_{6}$,4.5665000000000004,eV,,,,,,,
AlF$_{3}$,7.3085,eV,,,,,,,
K$_{3}$YF$_{6}$,6.4613,eV,,,,,,,
Lu$_{5}$Si$_{3}$B,0.0,eV,,,,,,,
Ho$_{5}$Si$_{3}$B,0.0,eV,,,,,,,
Ho$_{5}$Si$_{3}$,0.0,eV,,,,,,,
Dy$_{5}$Si$_{3}$B,0.0,eV,,,,,,,
ScInCu$_{4}$,0.0,eV,,,,,,,
MgSi$_{7}$Ir$_{3}$,0,eV,,,,,,,
ScU$_{3}$Sb$_{5}$,0,eV,,,,,,,
Tb(P$_{3}$Ru)$_{4}$,0.0,eV,,,,,,,
LaSnPt,0.0,eV,,,,,,,
SnB$_{4}$O$_{7}$,3.5712,eV,,,,,,,
CeMgZn$_{2}$,0.0,eV,,,,,,,
CsHoCoSe$_{3}$,0.0,eV,,,,,,,
Nb$_{3}$Sn,0.0,eV,,,,,,,
Ce$_{2}$Mo$_{2}$C$_{3}$,0.0,eV,,,,,,,
Sm$_{2}$Mo$_{2}$C$_{3}$,0.0,eV,,,,,,,
ErAgSn,0.0,eV,,,,,,,
GdCo$_{4}$B,0,eV,,,,,,,
NdMg,0.10089999999999977,eV,,,,,,,
CaAg$_{2}$,0.0,eV,,,,,,,
ErAsPd,0.0,eV,,,,,,,
BaAlGe,0.0,eV,,,,,,,
Na$_{4}$CO$_{4}$,2.1989,eV,,,,,,,
NaSrP,1.2357,eV,,,,,,,
SrLiP,1.3430999999999997,eV,,,,,,,
BaLiP,0.9631000000000003,eV,,,,,,,
SrRh$_{2}$,0.0,eV,,,,,,,
Sm(ErSe$_{2}$)$_{3}$,0.7752999999999997,eV,,,,,,,
Sm(ErS$_{2}$)$_{3}$,1.0560999999999998,eV,,,,,,,
NaPd$_{3}$O$_{4}$,0.0,eV,,,,,,,
BaCuTeF,0.9836999999999998,eV,,,,,,,
Ba$_{3}$LiN,0.0,eV,,,,,,,
LaTe$_{2}$,0.0,eV,,,,,,,
Yb$_{2}$TbPrS$_{6}$,1.2724000000000002,eV,,,,,,,
AlN,4.423599999999999,eV,,,,,,,
LuSnAu,0.0,eV,,,,,,,
ErSnAu,0.0,eV,,,,,,,
SmSnAu,0.09699999999999953,eV,,,,,,,
YbCuGe,0.0,eV,,,,,,,
HoGeAu,0.0,eV,,,,,,,
YCd$_{2}$,0.0,eV,,,,,,,
SrAlGe,0.0,eV,,,,,,,
ScTlS$_{2}$,0.9387999999999996,eV,,,,,,,
ScTlSe$_{2}$,0.6128,eV,,,,,,,
ScTlTe$_{2}$,0.058100000000000485,eV,,,,,,,
Si$_{3}$Mo$_{5}$,0.0,eV,,,,,,,
LiGeRh$_{2}$,0.0,eV,,,,,,,
EuBa$_{2}$NbO$_{6}$,0,eV,,,,,,,
PrLuSe$_{3}$,0.49319999999999986,eV,,,,,,,
NdLuSe$_{3}$,0.49560000000000004,eV,,,,,,,
ZnSnO$_{3}$,1.0766999999999998,eV,,,,,,,
Cd(BO$_{2}$)$_{2}$,3.3430999999999997,eV,,,,,,,
RbSc$_{5}$Te$_{8}$,0.3273999999999999,eV,,,,,,,
EuCuTeF,0.6179000000000006,eV,,,,,,,
Y$_{2}$C,0.0,eV,,,,,,,
YB$_{4}$Rh,0.0,eV,,,,,,,
ErB$_{4}$Rh,0.0,eV,,,,,,,
TmB$_{4}$Rh,0,eV,,,,,,,
YbB$_{4}$Rh,0.0,eV,,,,,,,
CsUAgS$_{3}$,4.999999999997229E-4,eV,,,,,,,
CsUCuS$_{3}$,0,eV,,,,,,,
KUCuS$_{3}$,0.0,eV,,,,,,,
VFe,0.0,eV,,,,,,,
RbUAgS$_{3}$,0.0,eV,,,,,,,
RbUAgSe$_{3}$,0.021500000000000075,eV,,,,,,,
RbUCuS$_{3}$,0.0,eV,,,,,,,
Ba$_{2}$SrTeO$_{6}$,3.1291999999999995,eV,,,,,,,
Yb$_{2}$MgSi$_{2}$,0.0,eV,,,,,,,
Y$_{5}$Ge$_{4}$,0.0,eV,,,,,,,
Cd$_{2}$Cu(PO$_{4}$)$_{2}$,0.6916,eV,,,,,,,
SiPt$_{3}$,0.0,eV,,,,,,,
CaZn$_{2}$,0.0,eV,,,,,,,
SrZn$_{2}$,0.0,eV,,,,,,,
Ba$_{3}$CaIr$_{2}$O$_{9}$,0.0,eV,,,,,,,
MoAs$_{2}$,0.0,eV,,,,,,,
LaTmO$_{3}$,4.414,eV,,,,,,,
SmZnRh,0.0,eV,,,,,,,
TbZnRh,0.0,eV,,,,,,,
DyZnRh,0.0,eV,,,,,,,
HoZnRh,0.0,eV,,,,,,,
CeZnPd,0.0,eV,,,,,,,
ScAg(PSe$_{3}$)$_{2}$,1.6451,eV,,,,,,,
ErAg(PSe$_{3}$)$_{2}$,1.7583000000000002,eV,,,,,,,
TmAg(PSe$_{3}$)$_{2}$,1.7752999999999999,eV,,,,,,,
NbIr$_{3}$,0.0,eV,,,,,,,
NdCu,0.0,eV,,,,,,,
LiIn$_{2}$Rh,0.0,eV,,,,,,,
Yb(MnSi)$_{2}$,0.0,eV,,,,,,,
Lu(NiGe)$_{2}$,0.0,eV,,,,,,,
Al,0.0,eV,,,,,,,
Ga$_{2}$Se$_{3}$,1.0376,eV,,,,,,,
Sm(CuGe)$_{2}$,0.0,eV,,,,,,,
Yb(CuGe)$_{2}$,0.0,eV,,,,,,,
Lu(MnGe)$_{2}$,0.0,eV,,,,,,,
LaAgPb,0.0,eV,,,,,,,
CeAgPb,0.0,eV,,,,,,,
Te$_{2}$Rh$_{3}$,0.0,eV,,,,,,,
Y$_{3}$Fe$_{29}$,0.0,eV,,,,,,,
ThCu$_{5}$Sn,0.0,eV,,,,,,,
Ta$_{3}$B$_{2}$,0.0,eV,,,,,,,
Sc$_{2}$InNi$_{2}$,0.0,eV,,,,,,,
BaO,2.0906000000000002,eV,,,,,,,
Sr$_{3}$Hg$_{2}$,0.0,eV,,,,,,,
La$_{2}$CdRh$_{2}$,0.0,eV,,,,,,,
NdNi$_{2}$,0.0,eV,,,,,,,
Nd$_{2}$AlCo$_{2}$,0.0,eV,,,,,,,
Dy$_{2}$AlCo$_{2}$,0.0,eV,,,,,,,
Tb$_{2}$AlCo$_{2}$,0.0,eV,,,,,,,
CaMgNi$_{4}$,0.0,eV,,,,,,,
CeMgNi$_{4}$,0.0,eV,,,,,,,
PrMgNi$_{4}$,0.0,eV,,,,,,,
Sm$_{3}$Se$_{4}$,0.0,eV,,,,,,,
LiSn,0.0,eV,,,,,,,
Rb$_{2}$As$_{2}$Pt,0.42779999999999996,eV,,,,,,,
Co$_{2}$P,0.0,eV,,,,,,,
Zn$_{13}$Rh,0.0,eV,,,,,,,
Zn$_{11}$Rh$_{2}$,0.0,eV,,,,,,,
YbGa$_{2}$,0.0,eV,,,,,,,
CaP,0.3443000000000005,eV,,,,,,,
HfSb,0.0,eV,,,,,,,
Dy$_{2}$Sb$_{5}$,0.0,eV,,,,,,,
BePd$_{2}$,0.0,eV,,,,,,,
BePd$_{3}$,0.0,eV,,,,,,,
ZnS,2.0416,eV,,,,,,,
NaCdSb,0.0,eV,,,,,,,
B$_{6}$O,1.8524000000000003,eV,,,,,,,
FeNiPt$_{2}$,0.0,eV,,,,,,,
Ca(FeSb$_{3}$)$_{4}$,0.0,eV,,,,,,,
Sm(SiAu)$_{2}$,0.0,eV,,,,,,,
Ce(GePd)$_{2}$,0.0,eV,,,,,,,
Th$_{3}$P$_{4}$,0.26010000000000044,eV,,,,,,,
Zr$_{3}$Al$_{2}$,0.0,eV,,,,,,,
HfSiRh,0.0,eV,,,,,,,
Sm(MnSi)$_{2}$,0.0,eV,,,,,,,
LiErGe,0.0,eV,,,,,,,
CeSi$_{2}$Ir$_{3}$,0.0,eV,,,,,,,
SmCoSi$_{2}$,0.0,eV,,,,,,,
Cu$_{3}$N,0.0,eV,,,,,,,
PrBPt$_{4}$,0.0,eV,,,,,,,
Eu(AlAu)$_{2}$,0.0,eV,,,,,,,
LaCoCu$_{12}$,0.0,eV,,,,,,,
SrPt$_{2}$,0.0,eV,,,,,,,
ErAl$_{3}$Ni$_{2}$,0.0,eV,,,,,,,
Nd$_{3}$Fe$_{29}$,0.0,eV,,,,,,,
ZrPd,0.0,eV,,,,,,,
Er$_{2}$Mg,0.0,eV,,,,,,,
Tb$_{2}$Mg,0.0,eV,,,,,,,
HoMg$_{2}$,0.0,eV,,,,,,,
Sm$_{3}$Si$_{2}$BO$_{10}$,4.9128,eV,,,,,,,
ErCoC$_{2}$,0.0,eV,,,,,,,
TmCoC$_{2}$,0.0,eV,,,,,,,
ScZn$_{2}$,0.0,eV,,,,,,,
CeAl$_{4}$Co,0.0,eV,,,,,,,
CeMg$_{2}$Ni$_{9}$,0.006199999999999761,eV,,,,,,,
Er$_{4}$In(NiGe$_{2}$)$_{2}$,0,eV,,,,,,,
Ho$_{4}$In(NiGe$_{2}$)$_{2}$,0.0,eV,,,,,,,
Tm$_{4}$In(NiGe$_{2}$)$_{2}$,0.0,eV,,,,,,,
CaNiGe$_{2}$,0.0,eV,,,,,,,
SrNiGe$_{2}$,0.0,eV,,,,,,,
NdBO$_{3}$,5.0609,eV,,,,,,,
TmAl$_{3}$(BO$_{3}$)$_{4}$,5.6843,eV,,,,,,,
Na$_{2}$ZnGe,0.0,eV,,,,,,,
HoInIr,0.0,eV,,,,,,,
SmAsO$_{4}$,3.7321999999999997,eV,,,,,,,
La$_{2}$ZnNi$_{2}$,0.0,eV,,,,,,,
LaZnNi,0.0,eV,,,,,,,
Tb$_{2}$ZnNi$_{2}$,0.0,eV,,,,,,,
TbZnNi,0.0,eV,,,,,,,
KPrSiSe$_{4}$,2.1773,eV,,,,,,,
Sr$_{2}$Mg(BO$_{3}$)$_{2}$,4.579700000000001,eV,,,,,,,
ZrGeTe$_{4}$,0.38039999999999985,eV,,,,,,,
BaIrF$_{6}$,0.0,eV,,,,,,,
Y$_{2}$Ge$_{2}$O$_{7}$,3.7719000000000005,eV,,,,,,,
Cs$_{2}$Pt,1.6768,eV,,,,,,,
CeZnAu,0.0,eV,,,,,,,
Y$_{6}$Mn$_{23}$,0.008799999999999919,eV,,,,,,,
ScTeO$_{3}$F,3.3208,eV,,,,,,,
Sb$_{2}$Pd,0.0,eV,,,,,,,
YB$_{2}$Pd$_{7}$,0.0,eV,,,,,,,
YP$_{5}$O$_{14}$,5.4835,eV,,,,,,,
NdS$_{2}$,0.3370999999999995,eV,,,,,,,
P$_{3}$Rh,0.0,eV,,,,,,,
Mg(ScGa)$_{2}$,0.0,eV,,,,,,,
ScSiPt$_{2}$,0.0,eV,,,,,,,
Sc$_{5}$Si$_{7}$Pt$_{9}$,0.0,eV,,,,,,,
EuAsO$_{4}$,0.0,eV,,,,,,,
ErGePt,0.0,eV,,,,,,,
DyIr$_{2}$,0.0,eV,,,,,,,
LuGePt,0.0,eV,,,,,,,
Sc$_{2}$Si$_{2}$Ru,0.0,eV,,,,,,,
CsB(CN)$_{4}$,6.3597,eV,,,,,,,
CuB(CN)$_{4}$,3.2193,eV,,,,,,,
NbIr,0.0,eV,,,,,,,
LiB(CN)$_{4}$,6.3482,eV,,,,,,,
RbB(CN)$_{4}$,6.3156,eV,,,,,,,
TlB(CN)$_{4}$,5.2178,eV,,,,,,,
BaZnSnS$_{4}$,2.3609999999999998,eV,,,,,,,
Rb$_{2}$UF$_{6}$,0.041300000000000114,eV,,,,,,,
K$_{2}$ZrF$_{6}$,5.694,eV,,,,,,,
NaSn$_{2}$F$_{5}$,3.7838,eV,,,,,,,
Cd$_{3}$(AsO$_{4}$)$_{2}$,1.6354,eV,,,,,,,
CdB$_{4}$O$_{7}$,3.9877000000000002,eV,,,,,,,
Be$_{13}$Sb,0.0,eV,,,,,,,
IrSe$_{2}$,0.04999999999999982,eV,,,,,,,
ZnPbF$_{6}$,1.9585000000000001,eV,,,,,,,
K$_{2}$Mg$_{2}$Be$_{3}$F$_{12}$,7.013199999999999,eV,,,,,,,
Rb$_{2}$Be$_{3}$Cd$_{2}$F$_{12}$,5.2364999999999995,eV,,,,,,,
ScSi$_{7}$Rh$_{3}$,0.0,eV,,,,,,,
ScSi$_{7}$Ir$_{3}$,0.0,eV,,,,,,,
Y$_{3}$ReO$_{8}$,1.6955,eV,,,,,,,
Na$_{2}$Au,0.0,eV,,,,,,,
Rb$_{3}$NaBe$_{2}$F$_{8}$,6.617800000000001,eV,,,,,,,
Cs$_{2}$LiAl$_{3}$F$_{12}$,7.0872,eV,,,,,,,
YNi,0.0,eV,,,,,,,
TiCdO$_{3}$,2.9224999999999994,eV,,,,,,,
Er$_{2}$Ge$_{2}$O$_{7}$,3.7278999999999995,eV,,,,,,,
Cs$_{2}$AgF$_{4}$,0,eV,,,,,,,
Ti$_{6}$Ge$_{5}$,0.0,eV,,,,,,,
Ca$_{2}$GeO$_{4}$,2.8981999999999997,eV,,,,,,,
Y$_{3}$Sb$_{4}$Au$_{3}$,0.5757000000000003,eV,,,,,,,
RbNO$_{3}$,3.0949999999999998,eV,,,,,,,
Ca$_{4}$Sb$_{2}$O,0.9093999999999998,eV,,,,,,,
Sr$_{2}$Ta$_{2}$O$_{7}$,2.928,eV,,,,,,,
Ti(PS$_{3}$)$_{2}$,1.3865999999999998,eV,,,,,,,
Mg$_{2}$Si,0.21830000000000016,eV,,,,,,,
NaSiAu$_{3}$,0.0,eV,,,,,,,
NaGeAu$_{3}$,0.051200000000000134,eV,,,,,,,
CdPd$_{3}$O$_{4}$,0.0,eV,,,,,,,
TlPO$_{4}$,0.7150999999999996,eV,,,,,,,
PdF$_{3}$,0.0,eV,,,,,,,
Zn$_{8}$Cu$_{5}$,0.0,eV,,,,,,,
BaBOF$_{3}$,5.8868,eV,,,,,,,
PdS$_{2}$,0.6036000000000001,eV,,,,,,,
HfGe$_{2}$,0.0,eV,,,,,,,
Cr$_{2}$S$_{3}$,0.0,eV,,,,,,,
Nb$_{5}$Si$_{3}$,0.0,eV,,,,,,,
Cs$_{2}$KAgF$_{6}$,0.6207999999999999,eV,,,,,,,
PrCuO$_{2}$,2.3548,eV,,,,,,,
SmCuO$_{2}$,2.502,eV,,,,,,,
EuCuO$_{2}$,0.0,eV,,,,,,,
Ge,0.35550000000000015,eV,,,,,,,
CsSi,1.6183,eV,,,,,,,
Al$_{4}$CO$_{4}$,3.8248,eV,,,,,,,
Sn$_{3}$Pd,0.0,eV,,,,,,,
NaCd$_{4}$(PO$_{4}$)$_{3}$,2.479,eV,,,,,,,
Cd$_{3}$As$_{2}$,0.0,eV,,,,,,,
Li$_{3}$PO$_{4}$,5.818099999999999,eV,,,,,,,
Na$_{3}$SrLaZnSi$_{6}$O$_{17}$,4.799,eV,,,,,,,
Nb$_{3}$Ge,0.0,eV,,,,,,,
TbRb$_{2}$O$_{3}$,0.0,eV,,,,,,,
CsCd(PO$_{3}$)$_{3}$,4.316,eV,,,,,,,
Zr$_{5}$Re$_{24}$,0.0,eV,,,,,,,
AgAsS$_{2}$,1.4968,eV,,,,,,,
K$_{3}$GaO$_{3}$,2.621,eV,,,,,,,
Rb$_{3}$GaO$_{3}$,2.4165,eV,,,,,,,
Cs$_{3}$SiF$_{7}$,5.633800000000001,eV,,,,,,,
SmP$_{5}$O$_{14}$,5.379,eV,,,,,,,
BaNa(PO$_{3}$)$_{3}$,5.3055,eV,,,,,,,
Nd$_{4}$Re$_{2}$O$_{11}$,0.4729000000000001,eV,,,,,,,
Ce$_{3}$Co$_{11}$B$_{4}$,0.0,eV,,,,,,,
ThCu$_{2}$,0.0,eV,,,,,,,
Sc$_{2}$Cd$_{3}$(GeO$_{4}$)$_{3}$,2.3032,eV,,,,,,,
Li$_{3}$Pr$_{2}$(BO$_{3}$)$_{3}$,4.7278,eV,,,,,,,
NaNdSiO$_{4}$,4.4774,eV,,,,,,,
Gd$_{2}$Si$_{2}$O$_{7}$,3.2104,eV,,,,,,,
LiC,3.2727,eV,,,,,,,
SnS,1.1323000000000003,eV,,,,,,,
BaNaNd(SiO$_{3}$)$_{3}$,4.7404,eV,,,,,,,
KTaP$_{4}$O$_{13}$,3.6681,eV,,,,,,,
K$_{2}$NaCuF$_{6}$,0.9263,eV,,,,,,,
K$_{2}$NaTlF$_{6}$,3.6205,eV,,,,,,,
K$_{2}$NaYF$_{6}$,6.2547,eV,,,,,,,
Zn$_{3}$Ru,0.0,eV,,,,,,,
Cs$_{2}$NaTlF$_{6}$,3.6228,eV,,,,,,,
Tl$_{2}$Pt$_{2}$O$_{7}$,0.6955,eV,,,,,,,
Nb$_{2}$Hg$_{2}$O$_{7}$,0.4385000000000001,eV,,,,,,,
Na$_{2}$TiZn$_{2}$SiO$_{7}$,3.0238000000000005,eV,,,,,,,
Ba$_{2}$MgUO$_{6}$,2.0536999999999996,eV,,,,,,,
Rb$_{2}$NaErF$_{6}$,6.4981,eV,,,,,,,
Cs$_{2}$NaErF$_{6}$,6.863899999999999,eV,,,,,,,
KAgF$_{3}$,0.0,eV,,,,,,,
Ce$_{3}$S$_{4}$,0.0,eV,,,,,,,
Cd$_{3}$SiO$_{5}$,0.9679,eV,,,,,,,
Ca(BO$_{2}$)$_{2}$,6.0656,eV,,,,,,,
TlCu$_{3}$S$_{2}$,0.4070999999999998,eV,,,,,,,
UCo$_{2}$,0.0,eV,,,,,,,
BaCdGeS$_{4}$,2.7009,eV,,,,,,,
U(RhO$_{3}$)$_{2}$,0.4231999999999996,eV,,,,,,,
LaIr$_{5}$,0.0,eV,,,,,,,
Ho$_{3}$ScO$_{6}$,4.423400000000001,eV,,,,,,,
IrF$_{4}$,0.0,eV,,,,,,,
Li$_{2}$TeO$_{4}$,2.2670999999999997,eV,,,,,,,
CeZn$_{2}$,0.0,eV,,,,,,,
Ge$_{3}$N$_{4}$,1.8872999999999998,eV,,,,,,,
P$_{3}$Ir,0.08339999999999925,eV,,,,,,,
B$_{3}$Ru$_{2}$,0.0,eV,,,,,,,
K$_{3}$SiF$_{7}$,5.9196,eV,,,,,,,
HoPb$_{3}$,0.0,eV,,,,,,,
HfB$_{4}$Ir$_{3}$,0.0,eV,,,,,,,
B$_{13}$P$_{2}$,0.0,eV,,,,,,,
BaGeO$_{3}$,3.5403000000000002,eV,,,,,,,
SbO$_{2}$,0.42160000000000064,eV,,,,,,,
PdF$_{4}$,0.7053999999999998,eV,,,,,,,
AlV$_{3}$,0.0,eV,,,,,,,
P$_{2}$Pt$_{5}$,0.0,eV,,,,,,,
Si(Cu$_{4}$S$_{3}$)$_{2}$,1.2330000000000005,eV,,,,,,,
Ca(GaSe$_{2}$)$_{2}$,2.0981,eV,,,,,,,
Al$_{8}$(Pb$_{3}$O$_{7}$)$_{3}$,2.8716,eV,,,,,,,
DyRh$_{2}$,0.0,eV,,,,,,,
PuAl$_{3}$,0.0023999999999997357,eV,,,,,,,
K$_{3}$UF$_{7}$,0.7939999999999996,eV,,,,,,,
Cs$_{2}$NaInF$_{6}$,5.304,eV,,,,,,,
Sr(CuO)$_{2}$,1.8082999999999996,eV,,,,,,,
ZnSnF$_{6}$,3.7147,eV,,,,,,,
CuSnF$_{6}$,0.0,eV,,,,,,,
CdSnF$_{6}$,3.8503999999999996,eV,,,,,,,
K$_{4}$Sn$_{23}$,0.0,eV,,,,,,,
Ag$_{2}$F,0.0,eV,,,,,,,
Ba(AgGe)$_{2}$,0.0,eV,,,,,,,
Ca(ZnGe)$_{2}$,0.0,eV,,,,,,,
LiCo$_{2}$Ge,0.0,eV,,,,,,,
LiNi$_{2}$Sn,0.0,eV,,,,,,,
LiCaSi$_{2}$,0.0,eV,,,,,,,
LiCaGe$_{2}$,0.0,eV,,,,,,,
Sr(GeAu)$_{2}$,0.0,eV,,,,,,,
ZnP$_{2}$,0.7455999999999996,eV,,,,,,,
Ba(ZnSn)$_{2}$,0.0,eV,,,,,,,
Ba$_{2}$Ge,7.999999999999119E-4,eV,,,,,,,
SnPS$_{3}$,2.1281999999999996,eV,,,,,,,
Cs$_{2}$NaYF$_{6}$,6.865399999999999,eV,,,,,,,
Rb$_{2}$NaYF$_{6}$,6.4704,eV,,,,,,,
Ba$_{2}$SmReO$_{6}$,0.0,eV,,,,,,,
Sn$_{4}$Au,0.0,eV,,,,,,,
TbBa$_{2}$ReO$_{6}$,0.0,eV,,,,,,,
Ba$_{2}$DyReO$_{6}$,0.0,eV,,,,,,,
Ba$_{2}$HoReO$_{6}$,0.0,eV,,,,,,,
Ba$_{2}$TmReO$_{6}$,0.0,eV,,,,,,,
YbBa$_{2}$ReO$_{6}$,0.0,eV,,,,,,,
Sr$_{2}$GdReO$_{6}$,0.0,eV,,,,,,,
TbSr$_{2}$ReO$_{6}$,0.0,eV,,,,,,,
Sr$_{2}$DyReO$_{6}$,0.0,eV,,,,,,,
Sr$_{2}$ErReO$_{6}$,0.0,eV,,,,,,,
Rb$_{2}$O,1.3192,eV,,,,,,,
Sr$_{2}$TmReO$_{6}$,0.0,eV,,,,,,,
YbSr$_{2}$ReO$_{6}$,0.0,eV,,,,,,,
Li$_{3}$AlN$_{2}$,2.9371,eV,,,,,,,
Rb$_{2}$ZrF$_{6}$,6.6418,eV,,,,,,,
Rb$_{2}$HfF$_{6}$,7.1297999999999995,eV,,,,,,,
Cs$_{2}$HfF$_{6}$,7.2288,eV,,,,,,,
Cd(GaTe$_{2}$)$_{2}$,1.0357000000000003,eV,,,,,,,
VRu,0.0,eV,,,,,,,
Rb$_{2}$GeF$_{6}$,5.8839,eV,,,,,,,
SmSi$_{2}$,0.0,eV,,,,,,,
Ag$_{2}$PSe$_{3}$,0.8588,eV,,,,,,,
Sr$_{3}$Er$_{2}$(BO$_{3}$)$_{4}$,4.476699999999999,eV,,,,,,,
NdAs$_{2}$,0.0376000000000003,eV,,,,,,,
HfSiSe,0.0,eV,,,,,,,
HfSiTe,0.0,eV,,,,,,,
HfGeTe,0.0,eV,,,,,,,
Nb$_{5}$(SiCu)$_{4}$,0.0,eV,,,,,,,
Rb$_{2}$Te,1.7021,eV,,,,,,,
Nd$_{2}$SeO$_{2}$,2.1457,eV,,,,,,,
Sm$_{2}$SeO$_{2}$,2.1358,eV,,,,,,,
Gd$_{2}$SeO$_{2}$,1.3184999999999998,eV,,,,,,,
Ho$_{2}$SeO$_{2}$,2.1517000000000004,eV,,,,,,,
Er$_{2}$SeO$_{2}$,2.1741000000000006,eV,,,,,,,
Yb$_{2}$SeO$_{2}$,0.0,eV,,,,,,,
Rb$_{2}$ThF$_{6}$,6.2733,eV,,,,,,,
Ca$_{2}$Nb$_{2}$O$_{7}$,3.1000999999999994,eV,,,,,,,
KPO$_{3}$,4.821199999999999,eV,,,,,,,
CdCu$_{2}$GeS$_{4}$,0.3622000000000005,eV,,,,,,,
ZnPdF$_{6}$,1.5893000000000002,eV,,,,,,,
CdPdF$_{6}$,1.7751000000000001,eV,,,,,,,
Li$_{2}$PdF$_{6}$,1.8867,eV,,,,,,,
Li$_{2}$PtF$_{6}$,2.4927,eV,,,,,,,
Cs$_{2}$Pt$_{3}$S$_{4}$,1.6488,eV,,,,,,,
Ti$_{3}$NiS$_{6}$,0.0,eV,,,,,,,
Hg$_{2}$GeO$_{4}$,0.8759999999999999,eV,,,,,,,
RbAlF$_{4}$,6.8327,eV,,,,,,,
Na$_{5}$AlO$_{4}$,2.4191000000000003,eV,,,,,,,
Se,0.9987999999999999,eV,,,,,,,
HfW$_{2}$,0.0,eV,,,,,,,
UCdO$_{4}$,1.9388,eV,,,,,,,
Ba$_{4}$SiAs$_{4}$,0.9847000000000001,eV,,,,,,,
Ba$_{4}$GeAs$_{4}$,0.8233999999999999,eV,,,,,,,
KRuO$_{4}$,0.0,eV,,,,,,,
BaGeF$_{6}$,5.7917000000000005,eV,,,,,,,
ZrZn$_{2}$,0.0,eV,,,,,,,
Al(PO$_{3}$)$_{3}$,5.6178,eV,,,,,,,
Cu$_{3}$P,0.0,eV,,,,,,,
HoMn$_{12}$,0.0,eV,,,,,,,
K$_{3}$Sb,0.39360000000000006,eV,,,,,,,
K$_{3}$As,0.11349999999999999,eV,,,,,,,
NiB,0.0,eV,,,,,,,
SmNi$_{2}$,0.0,eV,,,,,,,
Na$_{3}$Li$_{3}$Sc$_{2}$F$_{12}$,6.8685,eV,,,,,,,
Zr$_{2}$CuS$_{4}$,0.0,eV,,,,,,,
Ca$_{2}$Ta$_{2}$O$_{7}$,2.2952,eV,,,,,,,
Sm$_{2}$S$_{3}$,0.7441,eV,,,,,,,
Na$_{2}$LiY(Si$_{2}$O$_{5}$)$_{3}$,4.6025,eV,,,,,,,
KRb$_{2}$RhF$_{6}$,2.1662,eV,,,,,,,
NaTl$_{2}$RhF$_{6}$,1.7802999999999998,eV,,,,,,,
Rb$_{2}$NaRhF$_{6}$,1.9529999999999998,eV,,,,,,,
K$_{2}$NaRhF$_{6}$,1.9994,eV,,,,,,,