formula,Property Band Gap,Property Band Gap units,Property Band gap,Property Band gap units,Temperature (Property Band gap),Temperature (Property Band gap) units,Property Color,Temperature (Property Color),Temperature (Property Color) units
K$_{3}$Bi(PS$_{4}$)$_{2}$,2.0899,eV,,,,,,,
Ti$_{4}$P$_{6}$PbO$_{24}$,2.7893,eV,,,,,,,
U(TeO$_{3}$)$_{3}$,1.7300000000000004,eV,,,,,,,
RbScAs$_{2}$O$_{7}$,3.5429,eV,,,,,,,
CsFeF$_{4}$,2.8735,eV,,,,,,,
CaU(SeO$_{4}$)$_{2}$,0.4659,eV,,,,,,,
CsAs$_{3}$O$_{8}$,2.2357,eV,,,,,,,
Nd$_{5}$Cu$_{5}$O$_{13}$,0.0,eV,,,,,,,
La$_{2}$Hf$_{2}$O$_{7}$,0.0,eV,,,,,,,
Ca$_{5}$P$_{3}$ClO$_{12}$,5.3001000000000005,eV,,,,,,,
CuBiSCl$_{2}$,0.6101000000000001,eV,,,,,,,
NaSbCO$_{2}$F$_{3}$,3.098,eV,,,,,,,
NaCa$_{4}$(BO$_{3}$)$_{3}$,4.0868,eV,,,,,,,
SiO$_{2}$,5.6227,eV,,,,,,,
Pr$_{2}$SnS$_{5}$,0.0,eV,,,,,,,
BaPb$_{2}$IF$_{5}$,2.8424,eV,,,,,,,
Bi$_{6}$Cl$_{3}$O$_{7}$F,2.994,eV,,,,,,,
K$_{2}$NaCrF$_{6}$,3.9821,eV,,,,,,,
ZnS,2.0288,eV,,,,,,,
Ba$_{3}$(PS$_{4}$)$_{2}$,2.1538,eV,,,,,,,
SiO$_{2}$,5.4489,eV,,,,,,,
SrAgB$_{7}$O$_{12}$,3.0005999999999995,eV,,,,,,,
SnSb$_{2}$As$_{2}$F$_{18}$,3.4536,eV,,,,,,,
Ba$_{9}$(RhO$_{3}$)$_{8}$,1.295,eV,,,,,,,
Ca$_{2}$BClO$_{3}$,4.5762,eV,,,,,,,
Tb$_{2}$Ba$_{3}$(PS$_{4}$)$_{4}$,2.3711,eV,,,,,,,
ZrSCl$_{6}$O,3.2640000000000002,eV,,,,,,,
Ba$_{3}$SrIr$_{2}$O$_{9}$,0.0,eV,,,,,,,
SiO$_{2}$,5.6122000000000005,eV,,,,,,,
Cu$_{3}$SbS$_{3}$,0.8347000000000007,eV,,,,,,,
AlPO$_{4}$,5.4822,eV,,,,,,,
TiO$_{2}$,2.6774000000000004,eV,,,,,,,
Tl$_{3}$Hg$_{2}$S$_{3}$ClO$_{12}$,2.7407,eV,,,,,,,
RbTh$_{2}$(PO$_{4}$)$_{3}$,4.5631,eV,,,,,,,
Lu$_{3}$B$_{5}$O$_{12}$,5.426500000000001,eV,,,,,,,
Na$_{5}$Fe$_{3}$F$_{14}$,3.2762000000000002,eV,,,,,,,
Na$_{15}$S$_{5}$Cl(O$_{5}$F)$_{4}$,4.9573,eV,,,,,,,
La$_{6}$Ti$_{2}$S$_{8}$O$_{5}$,1.3379000000000003,eV,,,,,,,
NaPH$_{4}$O$_{5}$,5.2286,eV,,,,,,,
AsS$_{3}$(NF$_{3}$)$_{2}$,0.5929,eV,,,,,,,
CuSb$_{2}$ClO$_{3}$,0.6385000000000005,eV,,,,,,,
Na$_{7}$SnS$_{3}$(O$_{4}$F)$_{3}$,4.990600000000001,eV,,,,,,,
Er$_{4}$Mo$_{4}$O$_{11}$,0.036599999999999966,eV,,,,,,,
Cu$_{2}$As$_{2}$O$_{7}$,0,eV,,,,,,,
Cs$_{2}$NaMnF$_{6}$,0.0,eV,,,,,,,
La$_{3}$U(ClO$_{2}$)$_{3}$,1.5601000000000003,eV,,,,,,,
Bi$_{2}$Pd$_{3}$S$_{2}$,0.03410000000000046,eV,,,,,,,
TlBiS$_{2}$,0.4242999999999997,eV,,,,,,,
RbCrF$_{6}$,1.4163999999999999,eV,,,,,,,
CaBeB$_{2}$O$_{5}$,5.692200000000001,eV,,,,,,,
RePCl$_{8}$O,0.04329999999999999,eV,,,,,,,
BH$_{11}$C$_{4}$BrNF$_{4}$,5.1175999999999995,eV,,,,,,,
P$_{2}$Pd$_{2}$O$_{7}$,0.7162999999999999,eV,,,,,,,
Ba$_{2}$Fe$_{2}$S$_{2}$OF$_{2}$,2.0466,eV,,,,,,,
NaSO$_{4}$,3.5176000000000003,eV,,,,,,,
SrCrF$_{6}$,0.0,eV,,,,,,,
K$_{2}$CuH$_{12}$(SeO$_{7}$)$_{2}$,0.5889,eV,,,,,,,
NbAg$_{2}$(PS$_{4}$)$_{2}$,1.6183,eV,,,,,,,
Rb$_{2}$IrF$_{6}$,0.0,eV,,,,,,,
CrF$_{2}$,2.5732,eV,,,,,,,
Hf$_{3}$Cd$_{3}$AgF$_{20}$,0.0,eV,,,,,,,
K$_{2}$CuSbS$_{3}$,1.1907,eV,,,,,,,
Li$_{3}$Al(BO$_{3}$)$_{2}$,4.593699999999999,eV,,,,,,,
KSr$_{4}$(BO$_{3}$)$_{3}$,4.173,eV,,,,,,,
SrHg$_{2}$(ClO)$_{2}$,1.6485,eV,,,,,,,
Ba$_{2}$CuF$_{6}$,0.0,eV,,,,,,,
TiS$_{4}$(NCl)$_{5}$,1.4847000000000001,eV,,,,,,,
CaF$_{2}$,5.1324,eV,,,,,,,
Na$_{4}$Nb$_{9}$(P$_{2}$O$_{13}$)$_{3}$,0.02400000000000002,eV,,,,,,,
Ag$_{4}$TeO$_{5}$,0.19519999999999982,eV,,,,,,,
Cs$_{2}$Si$_{3}$SnO$_{9}$,3.7921,eV,,,,,,,
TcXeO$_{4}$F$_{5}$,2.0717,eV,,,,,,,
Pr$_{2}$Ti$_{3}$(ClO$_{4}$)$_{2}$,2.968,eV,,,,,,,
MgBeAl$_{4}$O$_{8}$,5.5283999999999995,eV,,,,,,,
TiSCl$_{6}$O,0.22660000000000002,eV,,,,,,,
CaSiBHO$_{5}$,5.3854,eV,,,,,,,
Y$_{4}$TiSi$_{2}$(O$_{3}$F$_{2}$)$_{3}$,2.7199,eV,,,,,,,
AsXeF$_{11}$,2.0241000000000002,eV,,,,,,,
K$_{2}$CdP$_{2}$O$_{7}$,3.8751,eV,,,,,,,
Na$_{2}$Si$_{2}$O$_{5}$,4.4573,eV,,,,,,,
NaSb(PS$_{3}$)$_{2}$,2.1780999999999997,eV,,,,,,,
ZnGa$_{3}$N$_{3}$O,0.0,eV,,,,,,,
Ta$_{3}$(BiS$_{3}$)$_{2}$,0.0,eV,,,,,,,
SrAl$_{2}$SiN$_{2}$O$_{3}$,3.7236,eV,,,,,,,
Na$_{5}$Li$_{3}$(TiS$_{4}$)$_{2}$,2.2479,eV,,,,,,,
Mg$_{2}$SiO$_{4}$,4.1471,eV,,,,,,,
SiO$_{2}$,0.8752,eV,,,,,,,
U(Al$_{2}$Cr)$_{4}$,0.0,eV,,,,,,,
BaCu$_{2}$Te$_{2}$(ClO$_{3}$)$_{2}$,0.0,eV,,,,,,,
ZnS,2.0715000000000003,eV,,,,,,,
CsAgSb$_{4}$S$_{7}$,1.6886999999999999,eV,,,,,,,
Ba$_{2}$LaRuO$_{6}$,0.2179000000000002,eV,,,,,,,
RbTa(PO$_{4}$)$_{2}$,3.3525,eV,,,,,,,
Ta$_{4}$FeS$_{8}$,0.0,eV,,,,,,,
GdCuSe$_{2}$ClO$_{6}$,0.6263000000000001,eV,,,,,,,
Y$_{2}$SiO$_{5}$,4.7341999999999995,eV,,,,,,,
KCu$_{2}$AsS$_{3}$,1.1635999999999997,eV,,,,,,,
Y(PO$_{3}$)$_{3}$,5.688899999999999,eV,,,,,,,
NaCu(IO$_{3}$)$_{3}$,0.4349000000000003,eV,,,,,,,
ReSbOF$_{10}$,1.9810999999999999,eV,,,,,,,
KAl(SiO$_{3}$)$_{2}$,4.755000000000001,eV,,,,,,,
TcBi$_{3}$O$_{8}$,2.0021,eV,,,,,,,
CuSeO$_{3}$,0.021500000000000075,eV,,,,,,,
NaTi$_{2}$Ga$_{5}$O$_{12}$,2.7362,eV,,,,,,,
LiAuF$_{4}$,2.085,eV,,,,,,,
Na$_{6}$Se$_{2}$O$_{9}$,1.1291999999999998,eV,,,,,,,
MnCo(BiO$_{3}$)$_{2}$,0.0,eV,,,,,,,
Bi$_{5}$IO$_{7}$,2.7325000000000004,eV,,,,,,,
BaFeF$_{4}$,3.3521,eV,,,,,,,
Ho(Mo$_{3}$S$_{4}$)$_{2}$,0.0,eV,,,,,,,
Pr$_{6}$S$_{4}$BrN$_{3}$,1.2631000000000001,eV,,,,,,,
K(OsO$_{3}$)$_{2}$,0,eV,,,,,,,
Na$_{3}$LuSi$_{2}$O$_{7}$,3.9466000000000006,eV,,,,,,,
RbFeF$_{3}$,0.0,eV,,,,,,,
PNClF,5.0565,eV,,,,,,,
Na$_{2}$MnGaF$_{7}$,2.7138,eV,,,,,,,
LaNb$_{2}$ClO$_{6}$,2.5637,eV,,,,,,,
Ba$_{3}$BPO$_{7}$,3.3373,eV,,,,,,,
Ba$_{2}$Sb$_{4}$P$_{2}$O$_{17}$,1.8778000000000001,eV,,,,,,,
KCd$_{3}$H$_{8}$Cl$_{7}$O$_{4}$,3.4217000000000004,eV,,,,,,,
CeH$_{16}$C$_{4}$Cl$_{3}$O$_{4}$,0.30999999999999983,eV,,,,,,,
SiC(ClF)$_{3}$,6.1728000000000005,eV,,,,,,,
BiAsPbO$_{5}$,2.2678,eV,,,,,,,
CaZr(PO$_{4}$)$_{2}$,4.330299999999999,eV,,,,,,,
CuSb$_{2}$(XeF$_{5}$)$_{4}$,0.6642999999999999,eV,,,,,,,
SiO$_{2}$,0.5029000000000001,eV,,,,,,,
Ba$_{5}$Os$_{3}$ClO$_{15}$,0.6081000000000003,eV,,,,,,,
ZnS,2.0201000000000002,eV,,,,,,,
KHo(PO$_{3}$)$_{4}$,5.3316,eV,,,,,,,
K$_{3}$In$_{3}$(PO$_{4}$)$_{4}$,3.4717,eV,,,,,,,
KYP$_{2}$O$_{7}$,5.065,eV,,,,,,,
Cu$_{7}$P$_{12}$S$_{9}$Cl$_{7}$,1.5304000000000002,eV,,,,,,,
KScH$_{4}$(C$_{2}$O$_{5}$)$_{2}$,3.262,eV,,,,,,,
NaMnF$_{4}$,2.0519,eV,,,,,,,
EuCO$_{3}$,0.32450000000000045,eV,,,,,,,
Gd$_{4}$Ti(SeO)$_{4}$,0.6332,eV,,,,,,,
BaFeF$_{5}$,3.4295999999999998,eV,,,,,,,
TeBrO$_{3}$F$_{5}$,2.7381,eV,,,,,,,
KGd(PO$_{3}$)$_{4}$,3.1193,eV,,,,,,,
H$_{12}$C$_{4}$INO$_{3}$,3.9587,eV,,,,,,,
TiMn$_{2}$O$_{4}$,1.3879999999999995,eV,,,,,,,
Ba$_{2}$TiO$_{4}$,4.2635,eV,,,,,,,
K$_{2}$TeClF$_{5}$,4.4512,eV,,,,,,,
Ca$_{6}$Si$_{3}$H$_{2}$O$_{13}$,4.47,eV,,,,,,,
Li$_{5}$ReO$_{6}$,2.2088,eV,,,,,,,
Mg$_{3}$B(OF)$_{3}$,5.4165,eV,,,,,,,
SiO$_{2}$,5.4402,eV,,,,,,,
Bi$_{2}$Os$_{2}$O$_{7}$,0,eV,,,,,,,
Eu$_{2}$SiO$_{4}$,0.7010000000000005,eV,,,,,,,
CaGeO$_{3}$,2.5120999999999998,eV,,,,,,,
Zn$_{3}$P$_{2}$H$_{2}$O$_{9}$,3.3726000000000003,eV,,,,,,,
Ho$_{3}$CuSnS$_{7}$,1.4608999999999996,eV,,,,,,,
K$_{9}$Bi(PS$_{4}$)$_{4}$,2.0563000000000002,eV,,,,,,,
Gd$_{2}$(MoO$_{4}$)$_{3}$,3.2638,eV,,,,,,,
Li$_{4}$Be$_{3}$P$_{3}$BrO$_{12}$,5.864999999999999,eV,,,,,,,
Ti$_{2}$Cu$_{9}$(B$_{3}$O$_{11}$)$_{2}$,0.11689999999999978,eV,,,,,,,
Ta$_{2}$Bi$_{4}$Br$_{7}$O$_{2}$,0.06450000000000022,eV,,,,,,,
BaLiCoF$_{6}$,2.2721,eV,,,,,,,
H$_{10}$C$_{3}$NClO,5.3104000000000005,eV,,,,,,,
H$_{10}$C$_{3}$NClO$_{4}$,5.6154,eV,,,,,,,
K$_{3}$NbP$_{2}$O$_{9}$,2.8040000000000003,eV,,,,,,,
SiO$_{2}$,5.6155,eV,,,,,,,
Sb$_{4}$Au(Xe$_{2}$F$_{11}$)$_{2}$,0.38080000000000025,eV,,,,,,,
Rb$_{2}$In$_{3}$F$_{11}$,4.0714,eV,,,,,,,
Li$_{4}$P$_{2}$O$_{7}$,5.650799999999999,eV,,,,,,,
KSmP$_{2}$S$_{7}$,2.6285000000000003,eV,,,,,,,
DyP$_{5}$O$_{14}$,5.2463999999999995,eV,,,,,,,
Rb$_{3}$NaPbO$_{4}$,1.6142999999999998,eV,,,,,,,
Cu$_{3}$B$_{7}$BrO$_{13}$,0.0,eV,,,,,,,
K$_{2}$Ca$_{2}$(CO$_{3}$)$_{3}$,4.7388,eV,,,,,,,
CsCS(OF)$_{3}$,5.5996,eV,,,,,,,
TbTaO$_{4}$,4.1244,eV,,,,,,,
B$_{2}$H$_{10}$C$_{2}$NClO$_{3}$,0.0,eV,,,,,,,
SnS$_{2}$(O$_{3}$F)$_{2}$,4.2665,eV,,,,,,,
Cu$_{8}$GeS$_{6}$,0.5983,eV,,,,,,,
RbCuF$_{3}$,0.0,eV,,,,,,,
Rb$_{2}$PdN$_{2}$(ClO$_{2}$)$_{2}$,1.698,eV,,,,,,,
K$_{5}$NaCe$_{2}$(SO$_{4}$)$_{6}$,0.07719999999999994,eV,,,,,,,
Rb$_{2}$SbCl$_{3}$F$_{2}$,3.0561,eV,,,,,,,
Cu$_{7}$As$_{6}$(PbO$_{12}$)$_{2}$,0.21329999999999982,eV,,,,,,,
ZnS,2.0236,eV,,,,,,,
PrZr$_{2}$F$_{11}$,5.7572,eV,,,,,,,
KEr(PO$_{3}$)$_{4}$,5.373399999999999,eV,,,,,,,
Sr$_{2}$FeReO$_{6}$,0,eV,,,,,,,
Sm$_{2}$Ta$_{2}$Cl$_{2}$O$_{7}$,3.1249,eV,,,,,,,
SbS$_{2}$NCl$_{8}$,1.8083,eV,,,,,,,
Ba(BrO$_{3}$)$_{2}$,4.1943,eV,,,,,,,
Cu$_{6}$PS$_{5}$Br,0.8183999999999996,eV,,,,,,,
ZnS,2.0318,eV,,,,,,,
Sb$_{2}$(PO$_{4}$)$_{3}$,0.05740000000000034,eV,,,,,,,
Gd$_{2}$B(OF)$_{3}$,2.7369,eV,,,,,,,
Ca$_{2}$Ru$_{2}$O$_{7}$,0.0,eV,,,,,,,
Sr$_{3}$Mg(SiO$_{4}$)$_{2}$,4.6914,eV,,,,,,,
K$_{2}$SbSO$_{4}$F$_{3}$,4.578,eV,,,,,,,
K$_{3}$Sb$_{2}$N$_{2}$O$_{6}$F$_{7}$,2.9622,eV,,,,,,,
TeS$_{4}$(NCl)$_{4}$,1.8941,eV,,,,,,,
Ag$_{5}$IO$_{6}$,0.01650000000000018,eV,,,,,,,
Na$_{3}$NiF$_{6}$,2.4063,eV,,,,,,,
LaH$_{6}$(ClO$_{3}$)$_{3}$,2.5974000000000004,eV,,,,,,,
K$_{3}$Pu(H$_{3}$O$_{4}$)$_{2}$,0.7253000000000001,eV,,,,,,,
Na$_{2}$Tl$_{2}$B$_{10}$O$_{17}$,4.1036,eV,,,,,,,
Cu(SbO$_{3}$)$_{2}$,0.0,eV,,,,,,,
H$_{12}$C$_{5}$N$_{2}$O,4.6195,eV,,,,,,,
Mg$_{2}$SiO$_{4}$,4.587400000000001,eV,,,,,,,
SiO$_{2}$,4.8029,eV,,,,,,,
Ba$_{3}$Ta$_{2}$CdO$_{9}$,3.4856,eV,,,,,,,
KZnB(PO$_{4}$)$_{2}$,4.7598,eV,,,,,,,
ZnGa$_{3}$N$_{3}$O,0.09509999999999996,eV,,,,,,,
SrTa$_{2}$Bi$_{2}$O$_{9}$,2.0000000000000004,eV,,,,,,,
H$_{3}$CS,3.7157999999999998,eV,,,,,,,
CaGe$_{2}$O$_{5}$,2.4608,eV,,,,,,,
ZnS,2.0175,eV,,,,,,,
SiO$_{2}$,5.7065,eV,,,,,,,
MgAs$_{2}$(XeF$_{9}$)$_{2}$,2.6712,eV,,,,,,,
Ba$_{6}$Na$_{2}$As$_{2}$Ru$_{2}$O$_{17}$,0.4022000000000001,eV,,,,,,,
Ba$_{6}$Hf$_{5}$S$_{16}$,0.5949,eV,,,,,,,
CaCr$_{2}$O$_{4}$,2.7875000000000005,eV,,,,,,,
La$_{2}$Mo$_{4}$O$_{15}$,3.2376999999999994,eV,,,,,,,
GePbO$_{3}$,2.7131,eV,,,,,,,
Mg$_{2}$B$_{2}$O$_{5}$,5.0851,eV,,,,,,,
SbP(OF$_{3}$)$_{2}$,4.3964,eV,,,,,,,
NaZr$_{2}$NiF$_{11}$,5.6362000000000005,eV,,,,,,,
TiPHO$_{5}$,2.8491,eV,,,,,,,
AsSe(ClF$_{2}$)$_{3}$,3.7138999999999998,eV,,,,,,,
Cs$_{2}$Mo$_{15}$S$_{19}$,0.0,eV,,,,,,,
AgAsC$_{4}$S$_{8}$(N$_{2}$F$_{3}$)$_{2}$,2.6151,eV,,,,,,,
CSCl$_{2}$,2.9369,eV,,,,,,,
ZnS,2.0368,eV,,,,,,,
Np$_{2}$O$_{5}$,0.0,eV,,,,,,,
NaSbCO$_{2}$F$_{3}$,3.1012,eV,,,,,,,
Bi(BO$_{2}$)$_{3}$,3.8529,eV,,,,,,,
Mg$_{3}$B(HO$_{2}$)$_{3}$,3.4202000000000004,eV,,,,,,,
Y$_{3}$GaO$_{6}$,3.6807,eV,,,,,,,
CuP$_{4}$S$_{3}$I,1.7032000000000003,eV,,,,,,,
BaCo$_{2}$(AsO$_{4}$)$_{2}$,0.5766,eV,,,,,,,
KNaCu$_{3}$S$_{3}$O$_{13}$,0.07350000000000012,eV,,,,,,,
K$_{3}$MnO$_{3}$,1.6431999999999998,eV,,,,,,,
RbSbS(O$_{2}$F)$_{2}$,4.6867,eV,,,,,,,
Li$_{4}$Al$_{3}$Ge$_{3}$BrO$_{12}$,3.8061000000000003,eV,,,,,,,
HgAs$_{4}$(S$_{2}$I)$_{2}$,2.0015,eV,,,,,,,
CaB$_{2}$(H$_{6}$O$_{5}$)$_{2}$,5.4565,eV,,,,,,,
CsAu$_{2}$F$_{7}$,1.7706000000000002,eV,,,,,,,
C$_{3}$ICl(OF$_{3}$)$_{2}$,3.0911,eV,,,,,,,
CdGe(BiO$_{3}$)$_{2}$,1.9183,eV,,,,,,,
KErP$_{2}$S$_{7}$,2.6558,eV,,,,,,,
Li$_{5}$La$_{3}$Nb$_{2}$O$_{12}$,3.2624,eV,,,,,,,
P$_{3}$IrO$_{9}$,2.2494000000000005,eV,,,,,,,
FeSnF$_{6}$,0.0,eV,,,,,,,
RbLi$_{7}$(SiO$_{4}$)$_{2}$,4.718,eV,,,,,,,
Na$_{2}$Zn(SO$_{4}$)$_{2}$,4.4697,eV,,,,,,,
SiO$_{2}$,5.6152,eV,,,,,,,
PH$_{6}$CNO$_{3}$,5.2433000000000005,eV,,,,,,,
SiP$_{2}$O$_{7}$,5.7395,eV,,,,,,,
SrBNO,3.396,eV,,,,,,,
BaH$_{2}$C$_{4}$S$_{4}$N$_{2}$(O$_{3}$F$_{4}$)$_{3}$,6.1485,eV,,,,,,,
KXeO$_{3}$F,2.8936,eV,,,,,,,
NpAgSeO$_{5}$,0.3155000000000001,eV,,,,,,,
Sb$_{3}$Au$_{3}$F$_{22}$,0.3687,eV,,,,,,,
BaSb$_{2}$F$_{12}$,4.0459,eV,,,,,,,
AgP(XeF$_{5}$)$_{2}$,1.3215999999999999,eV,,,,,,,
Sm$_{4}$Br$_{6}$O,0.0,eV,,,,,,,
MoSBr,0.7938000000000001,eV,,,,,,,
RbLu(SO$_{4}$)$_{2}$,5.8838,eV,,,,,,,
PNF$_{2}$,5.7684999999999995,eV,,,,,,,
NaCuPO$_{4}$,0.1743999999999999,eV,,,,,,,
NaY(SiO$_{3}$)$_{2}$,4.8028,eV,,,,,,,
Tb$_{3}$CuSnS$_{7}$,1.5553,eV,,,,,,,
Li$_{2}$Ga$_{2}$GeS$_{6}$,2.1339,eV,,,,,,,
KUN$_{3}$O$_{11}$,2.3253,eV,,,,,,,
AsSXeNF$_{10}$,2.9772000000000003,eV,,,,,,,
RuO$_{4}$,2.4250999999999996,eV,,,,,,,
YH$_{7}$C$_{4}$O$_{11}$,3.5366999999999997,eV,,,,,,,
BaSc$_{3}$AgS$_{6}$,1.5944999999999996,eV,,,,,,,
VF$_{4}$,2.2417,eV,,,,,,,
Ta$_{2}$Cd$_{2}$O$_{7}$,2.0269,eV,,,,,,,
Ca$_{3}$Nb$_{4}$(O$_{6}$F)$_{2}$,2.9837,eV,,,,,,,
Sr$_{3}$Se$_{3}$(ClO$_{4}$)$_{2}$,3.4263,eV,,,,,,,
SnH$_{22}$(Cl$_{3}$O$_{5}$)$_{2}$,3.1125,eV,,,,,,,
CuB$_{2}$(PbO$_{3}$)$_{2}$,0.4309000000000003,eV,,,,,,,
NbCrF$_{6}$,0.0,eV,,,,,,,
LaSc$_{3}$(BO$_{3}$)$_{4}$,4.2305,eV,,,,,,,
Ba$_{3}$CaSb$_{2}$O$_{9}$,3.1610000000000005,eV,,,,,,,
KTe$_{3}$O$_{6}$F,3.0664,eV,,,,,,,
MgP$_{4}$(Cl$_{5}$O$_{3}$)$_{2}$,3.5985,eV,,,,,,,
ZnS,2.0206,eV,,,,,,,
Tb(IO$_{3}$)$_{3}$,3.4104,eV,,,,,,,
CsSb(PO$_{4}$)$_{2}$,2.9469,eV,,,,,,,
Na$_{2}$Sn(CO$_{2}$)$_{4}$,2.8052,eV,,,,,,,
La$_{3}$RuO$_{7}$,0.5690999999999997,eV,,,,,,,
K$_{2}$SnP$_{2}$O$_{7}$,4.1772,eV,,,,,,,
Pr$_{3}$Si$_{2}$ClO$_{8}$,5.1502,eV,,,,,,,
NaMnCrF$_{6}$,3.279,eV,,,,,,,
Na$_{2}$Be(GeO$_{3}$)$_{2}$,3.0774000000000004,eV,,,,,,,
ZnS,2.0252,eV,,,,,,,
Yb$_{4}$Cl$_{6}$O,5.176,eV,,,,,,,
CoAs$_{4}$F$_{18}$,3.4337999999999997,eV,,,,,,,
KZrVF$_{7}$,2.4296,eV,,,,,,,
Ba$_{3}$LiIr$_{2}$O$_{9}$,0.0,eV,,,,,,,
H$_{13}$C$_{4}$NF$_{2}$,6.8267,eV,,,,,,,
Cs$_{5}$Si$_{3}$AgO$_{9}$,2.6818,eV,,,,,,,
Na$_{2}$Zn$_{2}$O$_{3}$,1.2476000000000003,eV,,,,,,,
SbP(Cl$_{3}$O)$_{2}$,2.2525,eV,,,,,,,
Cs$_{2}$VF$_{6}$,2.0370999999999997,eV,,,,,,,
Ta$_{4}$Mn$_{11}$O$_{21}$,2.2033,eV,,,,,,,
Mn$_{2}$O$_{7}$,1.8058000000000003,eV,,,,,,,
Y$_{2}$Te$_{5}$O$_{13}$,2.9944999999999995,eV,,,,,,,
Na$_{4}$Si$_{3}$(SnO$_{6}$)$_{2}$,3.0661000000000005,eV,,,,,,,
CsLuP$_{2}$O$_{7}$,5.1874,eV,,,,,,,
Na$_{2}$Si$_{2}$O$_{5}$,4.4186,eV,,,,,,,
Cs$_{2}$NaMnF$_{6}$,0,eV,,,,,,,
KGeAuS$_{3}$,2.2108,eV,,,,,,,
KNb$_{5}$O$_{13}$,2.3545000000000003,eV,,,,,,,
Ta$_{2}$O$_{5}$,0.2969000000000004,eV,,,,,,,
Al(MoS$_{2}$)$_{4}$,0.11579999999999924,eV,,,,,,,
SrGeO$_{3}$,3.3373,eV,,,,,,,
Ag$_{2}$B$_{8}$O$_{13}$,3.2651,eV,,,,,,,
AsCS$_{2}$N$_{2}$OF$_{5}$,2.8282999999999996,eV,,,,,,,
PrSbO$_{4}$,1.3777999999999997,eV,,,,,,,
CuHgSBr,0.4491999999999998,eV,,,,,,,
DyCuTe$_{2}$ClO$_{6}$,0.39460000000000006,eV,,,,,,,
Al(HO)$_{3}$,4.911300000000001,eV,,,,,,,
Ba$_{3}$Si$_{6}$N$_{4}$O$_{9}$,4.372,eV,,,,,,,
Ba$_{3}$Nb$_{2}$(P$_{2}$O$_{9}$)$_{2}$,3.1326,eV,,,,,,,
KUNbO$_{6}$,1.9425999999999999,eV,,,,,,,
KUI$_{3}$O$_{11}$,2.2614,eV,,,,,,,
ZnS,2.0385,eV,,,,,,,
RbCoF$_{3}$,0.0,eV,,,,,,,
MgTlP(H$_{6}$O$_{5}$)$_{2}$,4.5212,eV,,,,,,,
SbXe$_{2}$OF$_{15}$,1.2419000000000002,eV,,,,,,,
CsAlF$_{4}$,6.9718,eV,,,,,,,
MgSnAu,0.0,eV,,,,,,,
TbSeClO$_{3}$,4.3781,eV,,,,,,,
CaZnSi$_{3}$O$_{8}$,4.0893999999999995,eV,,,,,,,
Zn$_{2}$BiPO$_{6}$,2.8034999999999997,eV,,,,,,,
Ba$_{3}$MgIr$_{2}$O$_{9}$,0,eV,,,,,,,
BaMnFeF$_{7}$,2.1283,eV,,,,,,,
Hg$_{3}$PO$_{4}$,2.2447,eV,,,,,,,
LiSn$_{2}$(PO$_{4}$)$_{3}$,0.0,eV,,,,,,,
BaY$_{6}$Si$_{3}$B$_{6}$(O$_{12}$F)$_{2}$,5.2315000000000005,eV,,,,,,,
Hg(BiS$_{2}$)$_{2}$,1.408,eV,,,,,,,
Sr(GaO$_{2}$)$_{2}$,2.6751,eV,,,,,,,
BaVZnP$_{2}$O$_{9}$,2.3394000000000004,eV,,,,,,,
Sr$_{2}$VO$_{4}$,1.5283999999999995,eV,,,,,,,
H$_{12}$C$_{3}$NF$_{3}$,7.2752,eV,,,,,,,
CsNdNb$_{2}$O$_{7}$,2.3868,eV,,,,,,,
Nb$_{2}$AgPS$_{10}$,1.3724999999999996,eV,,,,,,,
Pr$_{8}$Sb$_{2}$S$_{15}$,1.8916,eV,,,,,,,
KRb$_{2}$BiF$_{6}$,4.7975,eV,,,,,,,
SbTe(IF$_{2}$)$_{3}$,1.9303,eV,,,,,,,
TiSO$_{5}$,2.1048999999999998,eV,,,,,,,
SiO$_{2}$,5.7187,eV,,,,,,,
NaSiBO$_{4}$,5.4139,eV,,,,,,,
NaI(OF)$_{2}$,4.2539,eV,,,,,,,
Ba$_{6}$Ru$_{2}$Pt(ClO$_{6}$)$_{2}$,0.6919,eV,,,,,,,
Hg$_{3}$SbAsS$_{3}$,1.6609000000000003,eV,,,,,,,
GaH$_{20}$C$_{2}$S$_{2}$NO$_{14}$,4.9488,eV,,,,,,,
Te$_{2}$Pb$_{3}$(ClO$_{3}$)$_{2}$,2.5073,eV,,,,,,,
Fe$_{2}$(SO$_{4}$)$_{3}$,2.1768,eV,,,,,,,
MgCrF$_{6}$,1.5333,eV,,,,,,,
Te$_{3}$I(OF$_{5}$)$_{3}$,1.9785,eV,,,,,,,
K$_{2}$Al$_{2}$Sb$_{2}$O$_{7}$,3.499,eV,,,,,,,
ZnS,2.0239,eV,,,,,,,
CsK$_{2}$CoO$_{2}$,1.6757999999999997,eV,,,,,,,
Pr$_{7}$BP$_{2}$O$_{17}$,4.6897,eV,,,,,,,
ZrFeF$_{6}$,0.0,eV,,,,,,,
TlCuF$_{3}$,0.0,eV,,,,,,,
Ba$_{4}$Gd$_{2}$Cd$_{3}$S$_{10}$,1.5844,eV,,,,,,,
B$_{2}$H$_{10}$C$_{2}$NClO$_{3}$,4.0016,eV,,,,,,,
ZnS,2.029,eV,,,,,,,
Ag$_{2}$Ge$_{2}$O$_{5}$,0.7531000000000001,eV,,,,,,,
Pd$_{3}$(PbS)$_{2}$,0.0,eV,,,,,,,
Ta$_{2}$Tl$_{3}$Cu$_{3}$S$_{8}$,1.8941000000000003,eV,,,,,,,
K$_{5}$B$_{19}$O$_{31}$,5.3537,eV,,,,,,,
ZnS,2.0299,eV,,,,,,,
Fe$_{8}$N,0.0,eV,,,,,,,
MgH$_{2}$(CO$_{2}$)$_{2}$,4.8844,eV,,,,,,,
LiMnFeF$_{6}$,2.4344,eV,,,,,,,
LiEr$_{2}$S$_{2}$O$_{8}$F$_{3}$,6.0868,eV,,,,,,,
WF$_{6}$,5.3735,eV,,,,,,,
Na$_{3}$Mg$_{2}$P$_{5}$O$_{16}$,4.8098,eV,,,,,,,
CsGa$_{2}$P$_{5}$O$_{16}$,4.6362,eV,,,,,,,
La$_{6}$S$_{4}$N$_{3}$Cl,1.2603999999999997,eV,,,,,,,
Tl$_{3}$CO$_{3}$F,2.4198999999999997,eV,,,,,,,
Rb$_{2}$MnF$_{5}$,1.2946,eV,,,,,,,
SiAg$_{6}$SO$_{8}$,0.006299999999999972,eV,,,,,,,
CS$_{3}$NO$_{2}$F$_{3}$,3.2456,eV,,,,,,,
RbNa$_{2}$AuO$_{2}$,2.0954,eV,,,,,,,
TePbO$_{3}$,2.6712,eV,,,,,,,
LuSeO$_{3}$F,4.2845,eV,,,,,,,
KCa$_{4}$(BO$_{3}$)$_{3}$,4.5893,eV,,,,,,,
AlF$_{3}$,7.4176,eV,,,,,,,
CdGe(BiO$_{3}$)$_{2}$,1.8998000000000004,eV,,,,,,,
AgSbTe$_{6}$S$_{16}$(OF$_{5}$)$_{6}$,0.8025,eV,,,,,,,
Ca$_{2}$Fe$_{9}$O$_{13}$,0,eV,,,,,,,
NaY(PO$_{3}$)$_{4}$,5.5938,eV,,,,,,,
TeAs(IF$_{2}$)$_{3}$,1.8895,eV,,,,,,,
KCrF$_{3}$,0.0,eV,,,,,,,
DyCuS$_{2}$,1.6186999999999996,eV,,,,,,,
LiCoF$_{4}$,1.9285,eV,,,,,,,
NaAlCdF$_{6}$,4.6080000000000005,eV,,,,,,,
BaNb$_{2}$O$_{6}$,2.9040999999999997,eV,,,,,,,
MnSb$_{2}$F$_{12}$,0.0,eV,,,,,,,
SbS$_{2}$NCl$_{6}$,1.6653,eV,,,,,,,
TcSb(OF$_{4}$)$_{2}$,2.8188,eV,,,,,,,
Eu$_{3}$K$_{9}$Si$_{12}$(O$_{16}$F)$_{2}$,0.00539999999999996,eV,,,,,,,
Nd$_{2}$As$_{4}$O$_{9}$,3.367,eV,,,,,,,
Cd(CO$_{2}$)$_{2}$,3.2979999999999996,eV,,,,,,,
LiEr(PO$_{3}$)$_{4}$,5.9182,eV,,,,,,,
Mo$_{6}$PbS$_{8}$,0.0,eV,,,,,,,
AsC$_{4}$S$_{4}$N$_{4}$Cl$_{2}$O$_{2}$F$_{5}$,1.4993999999999998,eV,,,,,,,
Tb$_{2}$SnS$_{5}$,0.1299999999999999,eV,,,,,,,
BaBe$_{2}$(BO$_{3}$)$_{2}$,5.599600000000001,eV,,,,,,,
BrN(OF$_{2}$)$_{2}$,2.341,eV,,,,,,,
La$_{3}$As$_{2}$ClO$_{7}$,3.1498999999999997,eV,,,,,,,
Hg$_{3}$AsS$_{4}$Br,1.5311,eV,,,,,,,
KNaSnF$_{6}$,5.1714,eV,,,,,,,
Sn$_{2}$IF$_{3}$,2.3751,eV,,,,,,,
Ba$_{3}$SrSb$_{2}$O$_{9}$,3.1353,eV,,,,,,,
ZnS,2.0199999999999996,eV,,,,,,,
PH$_{7}$CN$_{3}$O$_{3}$F,5.0802,eV,,,,,,,
Er$_{3}$CuGeS$_{7}$,1.7245999999999997,eV,,,,,,,
CsLi$_{5}$(BO$_{3}$)$_{2}$,3.4975,eV,,,,,,,
Na$_{3}$H$_{5}$(CO$_{2}$)$_{4}$,4.4589,eV,,,,,,,
KAu(NO$_{3}$)$_{4}$,2.0172,eV,,,,,,,
Ba$_{5}$Si(Cl$_{3}$O$_{2}$)$_{2}$,4.5485999999999995,eV,,,,,,,
Nd$_{4}$(SBr$_{2}$)$_{3}$,2.8092,eV,,,,,,,
SrLi$_{4}$Ca(SiO$_{4}$)$_{2}$,4.8294999999999995,eV,,,,,,,
LiBS$_{4}$(ClO$_{3}$)$_{4}$,4.6226,eV,,,,,,,
Rb$_{2}$Na$_{2}$IrO$_{4}$,0.0,eV,,,,,,,
CuB$_{4}$O$_{7}$,0.18770000000000042,eV,,,,,,,
PrPH$_{5}$CO$_{7}$,3.7298,eV,,,,,,,
Ba$_{5}$Re$_{3}$NO$_{18}$,2.3,eV,,,,,,,
PrS$_{2}$,0.3433999999999999,eV,,,,,,,
Tb$_{3}$Si$_{2}$Cl$_{5}$O$_{6}$,4.6895999999999995,eV,,,,,,,
SrSeO$_{3}$,3.8781,eV,,,,,,,
EuNa$_{3}$(CO$_{3}$)$_{3}$,0.0022000000000000908,eV,,,,,,,
NbBiO$_{4}$,2.5161,eV,,,,,,,
Na$_{2}$Er$_{2}$B$_{2}$O$_{7}$,4.3493,eV,,,,,,,
Ta$_{9}$Pb$_{12}$O$_{20}$F$_{29}$,2.4922999999999997,eV,,,,,,,
PH$_{9}$C(NO)$_{4}$,5.0103,eV,,,,,,,
TmNbO$_{4}$,3.4278000000000004,eV,,,,,,,
AsH$_{5}$C$_{2}$(OF$_{3}$)$_{2}$,5.2271,eV,,,,,,,
Li$_{2}$CrF$_{6}$,1.5229,eV,,,,,,,
Rb$_{3}$Cu$_{2}$(BiS$_{2}$)$_{5}$,0.5187000000000004,eV,,,,,,,
Cs$_{2}$Bi$_{4}$O$_{7}$,2.6731,eV,,,,,,,
NaPO$_{3}$,5.081,eV,,,,,,,
SrTaF$_{7}$,5.4906,eV,,,,,,,
KGaCuF$_{6}$,0.0,eV,,,,,,,
MgAs$_{2}$S$_{2}$(OF$_{3}$)$_{4}$,3.5807,eV,,,,,,,
Rb$_{2}$Pd(NO$_{3}$)$_{4}$,1.8272,eV,,,,,,,
KMnF$_{3}$,2.6633,eV,,,,,,,
H$_{8}$C$_{3}$O$_{2}$,5.641299999999999,eV,,,,,,,
La$_{3}$S$_{3}$N,1.3357,eV,,,,,,,
CsCO$_{2}$,4.1438,eV,,,,,,,
BiXeF$_{9}$,1.9537,eV,,,,,,,
AsC$_{2}$N(OF$_{3}$)$_{2}$,4.6508,eV,,,,,,,
SN,2.3644,eV,,,,,,,
K$_{3}$SbN$_{3}$(O$_{3}$F)$_{3}$,3.0785,eV,,,,,,,
CoSeO$_{4}$,1.9583,eV,,,,,,,
Zr$_{2}$Cu$_{3}$H$_{32}$(O$_{8}$F$_{7}$)$_{2}$,2.9428,eV,,,,,,,
Cs$_{2}$Li$_{3}$GaO$_{4}$,3.6593,eV,,,,,,,
BaAlF$_{5}$,7.083500000000001,eV,,,,,,,
KCS$_{2}$N(O$_{2}$F)$_{2}$,4.4578,eV,,,,,,,
SiO$_{2}$,5.3615,eV,,,,,,,
KTa(BO$_{3}$)$_{2}$,3.6133,eV,,,,,,,
ZnS,2.0244999999999997,eV,,,,,,,
Pb$_{2}$SO$_{5}$,3.1162000000000005,eV,,,,,,,
KNa$_{2}$Y(Si$_{2}$O$_{5}$)$_{3}$,4.8143,eV,,,,,,,
MnCrF$_{5}$,2.2668,eV,,,,,,,
Pr$_{2}$O$_{3}$,3.5518000000000005,eV,,,,,,,