formula,Property Band Gap,Property Band Gap units,Property Band gap,Property Band gap units,Temperature (Property Band gap),Temperature (Property Band gap) units,Property Color,Temperature (Property Color),Temperature (Property Color) units
Cs$_{3}$Na$_{2}$SnP$_{3}$,1.2610000000000001,eV,,,,,,,
Ge$_{3}$Sb$_{2}$O$_{9}$,3.036,eV,,,,,,,
Na$_{2}$ZnSiO$_{4}$,3.1365,eV,,,,,,,
NO$_{2}$,2.6914,eV,,,,,,,
Ho$_{4}$(B$_{2}$O$_{5}$)$_{3}$,5.5299,eV,,,,,,,
SrTa$_{2}$O$_{6}$,3.2289999999999996,eV,,,,,,,
Pu$_{3}$Pd$_{4}$,0.0016999999999995907,eV,,,,,,,
CsKNa$_{2}$Li$_{12}$(SiO$_{4}$)$_{4}$,4.722099999999999,eV,,,,,,,
La$_{3}$SiAgS$_{7}$,1.9689000000000005,eV,,,,,,,
Sr$_{5}$Sn$_{3}$,0.0,eV,,,,,,,
PrTaO$_{4}$,3.5750999999999995,eV,,,,,,,
Ta$_{3}$Ge,0.0032000000000005357,eV,,,,,,,
ReB$_{2}$,0.0,eV,,,,,,,
K$_{2}$SnO$_{3}$,2.1206000000000005,eV,,,,,,,
SrHo$_{2}$CuO$_{5}$,0.0,eV,,,,,,,
Sr$_{2}$Cu(SeO$_{3}$)$_{3}$,0.46110000000000007,eV,,,,,,,
Sr$_{5}$Sb$_{3}$,0.33729999999999993,eV,,,,,,,
ErB$_{2}$,0.0,eV,,,,,,,
Sm$_{2}$ReO$_{5}$,0.7924999999999995,eV,,,,,,,
Sr$_{3}$Sn$_{2}$O$_{7}$,2.1597,eV,,,,,,,
HfGePd,0.0,eV,,,,,,,
Y$_{3}$CuSnS$_{7}$,1.4826000000000006,eV,,,,,,,
SnAu,0.0,eV,,,,,,,
Pr$_{2}$SiTeO$_{4}$,2.0843999999999996,eV,,,,,,,
Y$_{5}$Ge$_{3}$,0.0,eV,,,,,,,
Nd$_{3}$RuO$_{7}$,0.0,eV,,,,,,,
RbAg$_{2}$SbS$_{4}$,0.6094999999999999,eV,,,,,,,
Sr$_{5}$Ge$_{3}$,0.0,eV,,,,,,,
UN$_{2}$,0.6911000000000005,eV,,,,,,,
ErGe$_{2}$Pt,0.009000000000000341,eV,,,,,,,
CaGeO$_{3}$,3.4743999999999997,eV,,,,,,,
Ta$_{2}$ZnO$_{6}$,3.0662000000000003,eV,,,,,,,
Nb$_{3}$Cr$_{3}$C,0.0,eV,,,,,,,
YSO$_{4}$F,5.8491,eV,,,,,,,
Li$_{15}$Ge$_{4}$,0.0,eV,,,,,,,
CsPr(PO$_{3}$)$_{4}$,5.2958,eV,,,,,,,
NaMg$_{4}$(AsO$_{4}$)$_{3}$,3.1921999999999997,eV,,,,,,,
K$_{2}$Li$_{3}$GaO$_{4}$,3.4186,eV,,,,,,,
Sr$_{5}$As$_{3}$O$_{12}$F,3.9026000000000005,eV,,,,,,,
BeO,6.8508,eV,,,,,,,
CaTiGeO$_{5}$,2.9242999999999997,eV,,,,,,,
KNa$_{2}$GaO$_{3}$,2.5055,eV,,,,,,,
Ba(SmTe$_{2}$)$_{2}$,0.7957000000000001,eV,,,,,,,
K$_{2}$RuO$_{4}$,0.5193,eV,,,,,,,
YbTe,1.4687999999999999,eV,,,,,,,
Cd$_{4}$SiSe$_{6}$,0.8187,eV,,,,,,,
K$_{2}$Hg$_{3}$(GeS$_{4}$)$_{2}$,1.5520999999999998,eV,,,,,,,
HoGe$_{2}$Ir,0.0,eV,,,,,,,
KCdC$_{3}$(NO)$_{3}$,4.1312,eV,,,,,,,
ThAl,0.0,eV,,,,,,,
ScRh,0.0,eV,,,,,,,
Hf$_{2}$CuGe$_{4}$,0.0,eV,,,,,,,
Nb$_{2}$Tl$_{4}$S$_{11}$,1.2121,eV,,,,,,,
Ba$_{2}$SnSe$_{3}$F$_{2}$,1.7221999999999997,eV,,,,,,,
Ta$_{2}$V$_{4}$Si$_{5}$,0.0,eV,,,,,,,
LiUNbO$_{6}$,1.7534000000000003,eV,,,,,,,
Nb$_{2}$Zn$_{4}$O$_{9}$,2.5331,eV,,,,,,,
NdRu$_{2}$,0.0,eV,,,,,,,
Cs$_{3}$SbSe$_{4}$,1.5387000000000002,eV,,,,,,,
Sm$_{2}$SiTeO$_{4}$,1.7845000000000004,eV,,,,,,,
ZrAu$_{4}$,0.0,eV,,,,,,,
Ba$_{4}$Si$_{20}$Au$_{3}$,0.0,eV,,,,,,,
Na$_{5}$AsO$_{5}$,1.4127000000000003,eV,,,,,,,
Ca$_{3}$(GeP$_{2}$)$_{2}$,0.7361999999999997,eV,,,,,,,
ScSe,0.0,eV,,,,,,,
Tl$_{3}$B$_{3}$S$_{10}$,1.8863000000000003,eV,,,,,,,
Sr$_{2}$SiO$_{4}$,4.376799999999999,eV,,,,,,,
Nd$_{3}$SiAgSe$_{7}$,1.4489999999999998,eV,,,,,,,
Sr$_{3}$SmRhO$_{6}$,2.0202999999999998,eV,,,,,,,
MnS,0.0,eV,,,,,,,
Rb$_{3}$Ge$_{4}$Au,0.9193,eV,,,,,,,
RbBaPO$_{4}$,4.995900000000001,eV,,,,,,,
Ba$_{3}$GeO,0.37090000000000023,eV,,,,,,,
La$_{2}$SiSeO$_{4}$,2.3068999999999997,eV,,,,,,,
Sn$_{2}$Sb$_{2}$S$_{5}$,1.045,eV,,,,,,,
BaNd$_{2}$BeO$_{5}$,3.8754999999999997,eV,,,,,,,
Tb$_{3}$KF$_{10}$,6.9507,eV,,,,,,,
K$_{3}$Na(SeO$_{4}$)$_{2}$,3.5517,eV,,,,,,,
CsF,5.2602,eV,,,,,,,
Mg$_{4}$Nb$_{2}$O$_{9}$,3.4252000000000002,eV,,,,,,,
K$_{3}$NaTh$_{2}$O$_{6}$,3.6674999999999995,eV,,,,,,,
YGaO$_{3}$,2.8953000000000007,eV,,,,,,,
LiInGeO$_{4}$,2.2777999999999996,eV,,,,,,,
Al$_{7}$CoCu$_{2}$,0.0,eV,,,,,,,
Tm$_{3}$Sb,0.0,eV,,,,,,,
Ag$_{3}$Ge$_{5}$P$_{6}$,0.5381,eV,,,,,,,
BaNa(B$_{3}$O$_{5}$)$_{3}$,5.5009999999999994,eV,,,,,,,
Nb$_{4}$CrSe$_{8}$,0.0,eV,,,,,,,
Mn$_{2}$NbP$_{12}$,0.0,eV,,,,,,,
NaAsO$_{3}$,2.8378,eV,,,,,,,
NaCuF$_{3}$,0.07099999999999995,eV,,,,,,,
NdMg$_{3}$,0.0,eV,,,,,,,
Ca(Al$_{4}$Co)$_{2}$,0.0,eV,,,,,,,
Ba(YTe$_{2}$)$_{2}$,0.8059000000000003,eV,,,,,,,
Sm$_{2}$Cu(SeO$_{3}$)$_{4}$,0.52,eV,,,,,,,
Ca$_{6}$GaN$_{5}$,0.8124000000000002,eV,,,,,,,
BaHo$_{2}$CuO$_{5}$,0.0,eV,,,,,,,
As$_{2}$O$_{5}$,1.4032,eV,,,,,,,
Al$_{13}$Ru$_{4}$,0.0,eV,,,,,,,
Ba$_{2}$Ge$_{2}$Te$_{5}$,0.6240999999999999,eV,,,,,,,
K$_{2}$Al$_{2}$Sb$_{3}$,0.9634,eV,,,,,,,
SnP$_{2}$O$_{7}$,3.3217999999999996,eV,,,,,,,
K$_{2}$Zr$_{3}$OF$_{12}$,5.4252,eV,,,,,,,
KNa$_{2}$(PO$_{3}$)$_{3}$,5.0463000000000005,eV,,,,,,,
NaYSiO$_{4}$,4.2827,eV,,,,,,,
Ca$_{2}$VN$_{3}$,1.6608999999999998,eV,,,,,,,
Mn$_{4}$Nb$_{2}$Si$_{5}$,0.0,eV,,,,,,,
Rb$_{3}$Sm(PS$_{4}$)$_{2}$,2.1861,eV,,,,,,,
K$_{3}$BeF$_{5}$,6.2165,eV,,,,,,,
RbYP$_{2}$O$_{7}$,5.0221,eV,,,,,,,
YZn,0.0,eV,,,,,,,
K$_{3}$Na(RuO$_{4}$)$_{2}$,0.0,eV,,,,,,,
Nd$_{2}$TiO$_{5}$,3.3137999999999996,eV,,,,,,,
Cs$_{2}$Hg$_{6}$S$_{7}$,0.9796,eV,,,,,,,
PrF$_{3}$,5.4589,eV,,,,,,,
Ba$_{2}$TiS$_{4}$,2.0967999999999996,eV,,,,,,,
SiO$_{2}$,5.7313,eV,,,,,,,
Al$_{5}$Rh$_{2}$,0.0,eV,,,,,,,
Ba$_{2}$ZnO$_{3}$,2.6719,eV,,,,,,,
Rb$_{3}$SbSe$_{3}$,2.3028,eV,,,,,,,
Tb$_{2}$SiSeO$_{4}$,2.5839,eV,,,,,,,
CaGa$_{4}$O$_{7}$,2.5336,eV,,,,,,,
Y$_{3}$CuGeSe$_{7}$,1.1180000000000003,eV,,,,,,,
Ba$_{2}$SnS$_{3}$F$_{2}$,2.3078000000000003,eV,,,,,,,
NbSeOF$_{7}$,4.5146999999999995,eV,,,,,,,
Ca$_{2}$P$_{2}$O$_{7}$,5.5138,eV,,,,,,,
ZnP$_{2}$PbO$_{7}$,4.2572,eV,,,,,,,
Zr$_{3}$Ni$_{3}$Sb$_{4}$,0.4371999999999989,eV,,,,,,,
Ba(DyTe$_{2}$)$_{2}$,0.7862,eV,,,,,,,
Ba(ErTe$_{2}$)$_{2}$,0.7848999999999995,eV,,,,,,,
RbHo$_{2}$Cu$_{3}$S$_{5}$,1.4781999999999993,eV,,,,,,,
Zr$_{3}$Te,0.0,eV,,,,,,,
Nd$_{2}$(ZnGe$_{2}$)$_{3}$,0.0,eV,,,,,,,
Na$_{2}$SiF$_{6}$,6.8676,eV,,,,,,,
BeO,8.168299999999999,eV,,,,,,,
Na$_{2}$B$_{4}$O$_{7}$,4.618,eV,,,,,,,
MgNi$_{2}$P,0.0,eV,,,,,,,
NaCaAlF$_{6}$,7.1135,eV,,,,,,,
RbPSe$_{6}$,1.8607999999999998,eV,,,,,,,
BaCu$_{2}$GeS$_{4}$,0.9664999999999999,eV,,,,,,,
Si(Hg$_{2}$S$_{3}$)$_{2}$,0.4393,eV,,,,,,,
NbF$_{3}$,0.0,eV,,,,,,,
Cs$_{4}$Zn$_{3}$F$_{10}$,4.6800999999999995,eV,,,,,,,
MgNb$_{2}$O$_{6}$,3.4118000000000004,eV,,,,,,,
BaCu$_{2}$SnS$_{4}$,0.3868999999999998,eV,,,,,,,
Ca$_{2}$UO$_{5}$,2.1350000000000002,eV,,,,,,,
Nd$_{2}$SiTeO$_{4}$,1.7858999999999998,eV,,,,,,,
BaSm$_{2}$O$_{4}$,3.1428000000000003,eV,,,,,,,
Na$_{2}$Ge$_{2}$Se$_{5}$,1.4022999999999999,eV,,,,,,,
KGaTe$_{2}$,1.2481,eV,,,,,,,
KInP$_{2}$O$_{7}$,3.8447000000000005,eV,,,,,,,
Rb$_{2}$Li$_{14}$Pr$_{3}$O$_{14}$,0.0,eV,,,,,,,
Zn$_{2}$Hg$_{2}$OF$_{6}$,0.8682,eV,,,,,,,
Cs$_{3}$GeF$_{7}$,4.3869,eV,,,,,,,
Na$_{3}$Hg$_{2}$,0.0,eV,,,,,,,
KSrPO$_{4}$,5.0889,eV,,,,,,,
Fe$_{12}$As$_{5}$,0.0,eV,,,,,,,
Rb$_{5}$GeP$_{3}$,0.46140000000000003,eV,,,,,,,
BaAl$_{2}$(SiO$_{4}$)$_{2}$,4.7813,eV,,,,,,,
CeMg$_{3}$,0.0,eV,,,,,,,
K$_{2}$MoS$_{4}$,1.4127999999999998,eV,,,,,,,
Eu$_{3}$IrO$_{7}$,0,eV,,,,,,,
Ag$_{8}$SnSe$_{6}$,9.999999999998899E-4,eV,,,,,,,
Ca$_{5}$(GaSb$_{3}$)$_{2}$,0.0,eV,,,,,,,
TiTl$_{2}$O$_{3}$,2.0959000000000003,eV,,,,,,,
Tb$_{11}$O$_{20}$,0.0,eV,,,,,,,
U$_{2}$Mn$_{12}$P$_{7}$,0.0,eV,,,,,,,
K$_{3}$PS$_{4}$,2.7739000000000003,eV,,,,,,,
TaCo$_{2}$,0.0,eV,,,,,,,
BaTi$_{2}$(P$_{2}$O$_{7}$)$_{2}$,0.0,eV,,,,,,,
Ca(RhO$_{2}$)$_{2}$,0.8186999999999998,eV,,,,,,,
Nd$_{2}$C$_{3}$,0.0,eV,,,,,,,
KLi$_{3}$GeO$_{4}$,3.9368,eV,,,,,,,
CsCuS$_{4}$,1.7616,eV,,,,,,,
NaYTiO$_{4}$,2.3749,eV,,,,,,,
Rb$_{2}$Cu$_{2}$SnS$_{4}$,0.8784999999999998,eV,,,,,,,
Ba$_{2}$HgS$_{3}$,1.3556,eV,,,,,,,
Ta$_{2}$Pd$_{3}$Se$_{8}$,0.6518000000000002,eV,,,,,,,
Th$_{7}$Fe$_{3}$,0.007899999999999352,eV,,,,,,,
K$_{3}$Sm(PO$_{4}$)$_{2}$,4.9728,eV,,,,,,,
Ge$_{3}$Mo$_{5}$C,0.0,eV,,,,,,,
P$_{4}$Pb$_{3}$O$_{13}$,4.0762,eV,,,,,,,
Hf$_{9}$BMo$_{4}$,0.0,eV,,,,,,,
SrZn$_{11}$,0.0,eV,,,,,,,
BaC$_{10}$,0.18229999999999968,eV,,,,,,,
Nb$_{5}$Ga$_{4}$,0.0,eV,,,,,,,
Na$_{2}$Si$_{4}$CuO$_{10}$,0.0,eV,,,,,,,
Th(NiP)$_{2}$,0.0,eV,,,,,,,
LiNbZnO$_{4}$,2.7779,eV,,,,,,,
Fe$_{3}$N,0.0,eV,,,,,,,
KPrF$_{4}$,7.1314,eV,,,,,,,
Tb$_{2}$SrO$_{4}$,3.6621999999999995,eV,,,,,,,
Sr$_{6}$YSc(BO$_{3}$)$_{6}$,4.4962,eV,,,,,,,
EuKPO$_{4}$,0.9541999999999993,eV,,,,,,,
LiZnAsO$_{4}$,2.9218,eV,,,,,,,
Ge$_{5}$P$_{6}$O$_{25}$,3.5718,eV,,,,,,,
ErRh$_{5}$,0.0,eV,,,,,,,
La$_{2}$TiO$_{5}$,3.2885999999999997,eV,,,,,,,
La$_{2}$Ge$_{5}$Rh$_{3}$,0.0,eV,,,,,,,
ZrMnSi$_{2}$,0.0,eV,,,,,,,
RbO$_{3}$,0.8712,eV,,,,,,,
Yb(Na$_{5}$Sn$_{6}$)$_{2}$,0.6806000000000001,eV,,,,,,,
SrSn$_{3}$,0.0,eV,,,,,,,
BaCaAlF$_{7}$,7.003,eV,,,,,,,
Ag$_{2}$TeO$_{3}$,1.6253000000000002,eV,,,,,,,
Ce$_{3}$SiAgSe$_{7}$,0.0,eV,,,,,,,
K$_{7}$TaAs$_{4}$,1.0407000000000002,eV,,,,,,,
NdF$_{3}$,5.450200000000001,eV,,,,,,,
Na$_{2}$TiF$_{6}$,4.666399999999999,eV,,,,,,,
BaLaCuS$_{3}$,1.1070000000000002,eV,,,,,,,
Ti$_{2}$Ni,0.0,eV,,,,,,,
Sm$_{3}$Ti$_{3}$(SeO$_{4}$)$_{2}$,0.03230000000000022,eV,,,,,,,
Tb$_{2}$BaZnO$_{5}$,3.0505999999999998,eV,,,,,,,
Ba$_{3}$TaAs$_{3}$O,1.0819,eV,,,,,,,
Al$_{2}$Mo$_{3}$C,0.0,eV,,,,,,,
BaSbF$_{5}$,4.7525,eV,,,,,,,
KGa$_{3}$,0.21629999999999994,eV,,,,,,,
Na$_{6}$Ge$_{2}$Se$_{7}$,1.5871000000000002,eV,,,,,,,
K$_{2}$Cd$_{3}$S$_{4}$,1.7875999999999999,eV,,,,,,,
Na$_{2}$Si$_{2}$S$_{5}$,3.5318,eV,,,,,,,
CsAgSe$_{4}$,1.3113,eV,,,,,,,
Dy$_{4}$(B$_{2}$O$_{5}$)$_{3}$,5.4521,eV,,,,,,,
RbDy(SO$_{4}$)$_{2}$,5.666399999999999,eV,,,,,,,
Ba$_{2}$LaC$_{3}$O$_{9}$F,3.9314,eV,,,,,,,
Sr$_{2}$Ge$_{2}$Se$_{5}$,1.1252,eV,,,,,,,
K$_{2}$Sn$_{2}$Hg$_{3}$S$_{8}$,1.4179,eV,,,,,,,
Hg$_{5}$Au$_{6}$,0.0,eV,,,,,,,
KAlCuF$_{6}$,0.08090000000000003,eV,,,,,,,
Ag(AuF$_{4}$)$_{2}$,0.25859999999999994,eV,,,,,,,
Tb$_{3}$CuSnSe$_{7}$,1.0152999999999999,eV,,,,,,,
Sr(Ni$_{2}$Sn)$_{2}$,0.0,eV,,,,,,,
La$_{2}$ZnGa$_{2}$S$_{6}$O,2.5862000000000003,eV,,,,,,,
Ba$_{2}$Mg$_{17}$,0.0,eV,,,,,,,
Nd$_{2}$Si$_{2}$O$_{7}$,4.6637,eV,,,,,,,
K$_{4}$SnSe$_{4}$,1.7396,eV,,,,,,,
Zr$_{2}$Co$_{4}$P$_{3}$,0,eV,,,,,,,
YbSr$_{3}$RhO$_{6}$,0.0,eV,,,,,,,
Zr$_{4}$Co$_{7}$Ge$_{6}$,0,eV,,,,,,,
UTl$_{4}$C$_{3}$O$_{11}$,1.7982999999999998,eV,,,,,,,
K$_{2}$WSe$_{4}$,1.2241,eV,,,,,,,
Na$_{5}$SiAs$_{3}$,0.7629999999999999,eV,,,,,,,
BaAg$_{5}$,0.0,eV,,,,,,,
Ca(Al$_{5}$Cr)$_{2}$,0.0,eV,,,,,,,
LiGaSiO$_{4}$,4.0502,eV,,,,,,,
K$_{3}$TaS$_{4}$,2.7558000000000002,eV,,,,,,,
K$_{3}$Lu(PO$_{4}$)$_{2}$,4.9407,eV,,,,,,,
KBaPSe$_{4}$,1.2588000000000001,eV,,,,,,,
SiP$_{2}$O$_{7}$,5.788,eV,,,,,,,
Li(CuO)$_{2}$,0.0,eV,,,,,,,
Cd$_{4}$GeSe$_{6}$,0.7534000000000001,eV,,,,,,,
Tb$_{3}$S$_{3}$N,1.4081000000000001,eV,,,,,,,
Na$_{3}$GaS$_{3}$,3.0027,eV,,,,,,,
Ca$_{3}$Cd$_{2}$,0.0,eV,,,,,,,
TlZnPO$_{4}$,3.8952,eV,,,,,,,
EuRbPO$_{4}$,0.8320999999999996,eV,,,,,,,
Ba$_{3}$NbAs$_{3}$O,1.0685,eV,,,,,,,
Cd$_{4}$SiS$_{6}$,1.434,eV,,,,,,,
SiF$_{4}$,7.7173,eV,,,,,,,
CsNa$_{3}$TiO$_{4}$,3.4808,eV,,,,,,,
YSnF$_{7}$,4.8968,eV,,,,,,,
YbKP$_{2}$O$_{7}$,0.028000000000000025,eV,,,,,,,
LiTmSn,0.0,eV,,,,,,,
SbO$_{2}$,2.0220000000000002,eV,,,,,,,
CaCu$_{3}$(SnO$_{3}$)$_{4}$,0.5281000000000002,eV,,,,,,,
Tl$_{2}$TeO$_{6}$,0.0,eV,,,,,,,
Sr$_{3}$Sn$_{5}$,0.0,eV,,,,,,,
CsTe$_{7}$Mo$_{6}$,0.0,eV,,,,,,,
TbLi(PO$_{3}$)$_{4}$,6.0598,eV,,,,,,,
Lu$_{2}$SiO$_{5}$,4.567500000000001,eV,,,,,,,
Ba(TmTe$_{2}$)$_{2}$,0.7841,eV,,,,,,,
Na$_{2}$BeGeO$_{4}$,3.7017,eV,,,,,,,
Sr$_{3}$TaAs$_{3}$O,1.3209999999999997,eV,,,,,,,
SrGa$_{2}$,0.0,eV,,,,,,,
YbS,2.2234,eV,,,,,,,
KGe$_{2}$(PO$_{4}$)$_{3}$,3.6226000000000003,eV,,,,,,,
Yb$_{8}$Ba$_{5}$Zn$_{4}$O$_{21}$,0.0,eV,,,,,,,
Co$_{2}$As,0.0,eV,,,,,,,
Pr$_{2}$(ZnGe$_{2}$)$_{3}$,0.0,eV,,,,,,,
WSe$_{2}$,1.4465,eV,,,,,,,
BaCa$_{2}$(SiO$_{3}$)$_{3}$,4.5745000000000005,eV,,,,,,,
K$_{3}$AlSe$_{3}$,2.3566,eV,,,,,,,
Dy$_{2}$SiSeO$_{4}$,2.5740999999999996,eV,,,,,,,
LiAlSiO$_{4}$,5.054499999999999,eV,,,,,,,
Lu$_{4}$Ge$_{6}$Rh$_{7}$,0.13680000000000003,eV,,,,,,,
Rb$_{6}$Ge$_{2}$O$_{7}$,2.8402000000000003,eV,,,,,,,
Ba$_{3}$NaSi$_{23}$,0.0,eV,,,,,,,
CaTa$_{2}$O$_{6}$,3.4758,eV,,,,,,,
Ti$_{3}$Al,0.0,eV,,,,,,,
Si(Hg$_{2}$Se$_{3}$)$_{2}$,0.14360000000000017,eV,,,,,,,
Ce$_{2}$Al$_{3}$Ge$_{4}$,0.0,eV,,,,,,,
NdNi$_{5}$,0.0,eV,,,,,,,
Tl$_{2}$Cu$_{2}$SnS$_{4}$,0.22229999999999972,eV,,,,,,,
K$_{2}$Si$_{3}$SnO$_{9}$,3.8295999999999997,eV,,,,,,,
K$_{6}$MnS$_{4}$,1.3034999999999999,eV,,,,,,,
K$_{6}$MnTe$_{4}$,1.4227000000000003,eV,,,,,,,
Sr$_{3}$ScRhO$_{6}$,2.2663999999999995,eV,,,,,,,
Cu$_{2}$Sb,0.0,eV,,,,,,,
SrGa$_{4}$O$_{7}$,2.4295,eV,,,,,,,
Nb$_{7}$P$_{4}$,0.0013999999999994017,eV,,,,,,,
RbSm(PO$_{3}$)$_{4}$,5.2964,eV,,,,,,,
Mg$_{2}$B$_{2}$O$_{5}$,5.1543,eV,,,,,,,
Fe$_{7}$C$_{3}$,0.0,eV,,,,,,,
Tb$_{2}$BaO$_{4}$,3.2026,eV,,,,,,,
Ho$_{2}$Cu(B$_{2}$O$_{5}$)$_{2}$,0.6646000000000001,eV,,,,,,,
Ta$_{3}$S$_{2}$,0.0,eV,,,,,,,
HoAgS$_{2}$,1.7807999999999997,eV,,,,,,,
La$_{2}$Cu(SeO$_{3}$)$_{4}$,0.4289999999999998,eV,,,,,,,
SrGa$_{4}$,0.0,eV,,,,,,,
Na$_{5}$Ti$_{2}$Si$_{2}$PO$_{13}$,2.5262000000000002,eV,,,,,,,
Ba$_{4}$LiNb$_{3}$O$_{12}$,2.5797999999999996,eV,,,,,,,
Zr$_{2}$CuGe$_{4}$,0.0,eV,,,,,,,
ThOs$_{2}$,0.0,eV,,,,,,,
SiO$_{2}$,5.7755,eV,,,,,,,
PrCo$_{9}$Si$_{4}$,0.0,eV,,,,,,,
Ce$_{2}$(SbPd$_{3}$)$_{3}$,0.0,eV,,,,,,,
Ti(SnO$_{2}$)$_{2}$,1.0812,eV,,,,,,,
Sr$_{6}$Ga$_{5}$N,0,eV,,,,,,,
BaSbTe$_{3}$,0.37429999999999986,eV,,,,,,,
SiP$_{2}$O$_{7}$,5.4559999999999995,eV,,,,,,,
Ba$_{5}$Dy$_{8}$Zn$_{4}$O$_{21}$,3.3654,eV,,,,,,,
Ba$_{3}$(GaN$_{2}$)$_{2}$,1.4937000000000005,eV,,,,,,,
UF$_{3}$,0.24230000000000018,eV,,,,,,,
NpTe,0.0,eV,,,,,,,
Ca$_{3}$AlSb$_{3}$,0.29380000000000006,eV,,,,,,,
Mn$_{2}$MoP$_{12}$,0.11270000000000024,eV,,,,,,,
Nd$_{3}$CuSnSe$_{7}$,1.1974,eV,,,,,,,
Rb$_{3}$AsSe$_{4}$,1.1944000000000001,eV,,,,,,,
CaZn$_{2}$(PO$_{4}$)$_{2}$,3.7871999999999995,eV,,,,,,,
Ba$_{2}$CdS$_{3}$,2.0868,eV,,,,,,,
SrAu$_{5}$,0.0,eV,,,,,,,
Si$_{3}$Ag$_{3}$(SnP$_{3}$)$_{2}$,0.2951000000000006,eV,,,,,,,
SrSiO$_{3}$,4.3766,eV,,,,,,,
Cs$_{6}$Si$_{2}$O$_{7}$,3.1656000000000004,eV,,,,,,,
Mg$_{2}$Pd,0.0,eV,,,,,,,
Na$_{5}$SnP$_{3}$,0.9405999999999999,eV,,,,,,,
Tm$_{2}$Si$_{2}$O$_{7}$,4.5925,eV,,,,,,,
LaPt$_{5}$,0.0,eV,,,,,,,
Hg$_{2}$Te$_{2}$O$_{7}$,1.5670999999999995,eV,,,,,,,
Ba$_{2}$Tl$_{2}$O$_{5}$,0.8080000000000003,eV,,,,,,,
CsMgPO$_{4}$,4.6322,eV,,,,,,,
Sr$_{3}$ZnRhO$_{6}$,0,eV,,,,,,,
Lu$_{2}$ZnS$_{4}$,2.3855999999999997,eV,,,,,,,
NaHoGeO$_{4}$,3.6055,eV,,,,,,,
Ba$_{2}$Ge$_{2}$Se$_{5}$,1.2918,eV,,,,,,,
Be$_{3}$N$_{2}$,3.3129,eV,,,,,,,
NdAl$_{4}$,0.0,eV,,,,,,,
ErPtF$_{7}$,2.2785,eV,,,,,,,
BaMgP$_{2}$O$_{7}$,5.322800000000001,eV,,,,,,,
Ta$_{2}$Tl$_{4}$S$_{11}$,1.5232999999999994,eV,,,,,,,
La$_{5}$Si$_{4}$,0.014499999999999957,eV,,,,,,,
KAlTe$_{2}$,1.8991999999999996,eV,,,,,,,
KGaP$_{2}$O$_{7}$,4.3848,eV,,,,,,,
V$_{3}$P,0.0,eV,,,,,,,
Sr$_{3}$(GeP$_{2}$)$_{2}$,0.9214999999999995,eV,,,,,,,
HfTe$_{3}$O$_{8}$,3.8425999999999996,eV,,,,,,,
TlSe,0.19799999999999995,eV,,,,,,,
Ca$_{5}$P$_{12}$Ir$_{19}$,0.0,eV,,,,,,,
K$_{7}$NbAs$_{4}$,1.1294,eV,,,,,,,
RbCuSe$_{4}$,1.0026000000000002,eV,,,,,,,
Yb(Al$_{4}$Co)$_{2}$,0.0,eV,,,,,,,
TbCu,0.0,eV,,,,,,,
ZnSe$_{2}$O$_{5}$,3.0412999999999997,eV,,,,,,,
KHgC$_{3}$(NO)$_{3}$,3.2554,eV,,,,,,,
ZnS,2.0316,eV,,,,,,,
K$_{3}$AlTe$_{3}$,2.117,eV,,,,,,,
K$_{3}$NbS$_{4}$,2.3437,eV,,,,,,,
Lu$_{2}$Si$_{2}$O$_{7}$,5.199199999999999,eV,,,,,,,
Ga$_{7}$Te$_{10}$,0.8714,eV,,,,,,,
Sm$_{2}$Si$_{2}$O$_{7}$,4.7617,eV,,,,,,,
Dy$_{3}$Ni$_{7}$B$_{2}$,0.0,eV,,,,,,,
TiO$_{2}$,2.2984,eV,,,,,,,
BaSiO$_{3}$,2.1249000000000002,eV,,,,,,,
SiIr$_{3}$,0.0,eV,,,,,,,
Na$_{3}$GeSe$_{3}$,1.8880999999999997,eV,,,,,,,
BaLa$_{2}$BeO$_{5}$,3.8870000000000005,eV,,,,,,,
NbAl$_{3}$,0.0,eV,,,,,,,
Er$_{3}$CrS$_{6}$,0.23270000000000035,eV,,,,,,,
Ba$_{2}$Ga$_{2}$S$_{5}$,2.7747,eV,,,,,,,
RbLiZn$_{2}$O$_{3}$,1.8536,eV,,,,,,,
YbCsP$_{2}$O$_{7}$,0.07079999999999997,eV,,,,,,,
Nb$_{2}$Al,0.0,eV,,,,,,,
KAg(NO$_{3}$)$_{2}$,2.4208,eV,,,,,,,
NdTaO$_{4}$,3.6099,eV,,,,,,,
Ba$_{3}$AlSb$_{3}$,0.4704999999999999,eV,,,,,,,
Rb$_{7}$NbAs$_{4}$,0.7678999999999998,eV,,,,,,,
Sr$_{3}$CuRhO$_{6}$,0.0,eV,,,,,,,
Ba$_{2}$MnS$_{3}$,1.1094999999999997,eV,,,,,,,
K$_{3}$Na$_{2}$SnAs$_{3}$,0.5786000000000002,eV,,,,,,,
K$_{2}$ZrO$_{3}$,3.6641,eV,,,,,,,
CaBe$_{13}$,0.0,eV,,,,,,,
Lu(FeGe)$_{6}$,0.0,eV,,,,,,,
KEr$_{3}$F$_{10}$,7.061,eV,,,,,,,
RbAlPdF$_{6}$,0.5243,eV,,,,,,,
Sr$_{5}$(SnP$_{3}$)$_{2}$,0.3643999999999994,eV,,,,,,,
K$_{2}$Si$_{6}$GeO$_{15}$,4.3731,eV,,,,,,,
TbGa$_{3}$Os,0.0,eV,,,,,,,
RbZnPO$_{4}$,3.7026999999999997,eV,,,,,,,
Rb$_{4}$GeO$_{4}$,2.6853,eV,,,,,,,
Nd$_{2}$SiSeO$_{4}$,2.6009,eV,,,,,,,
Mn$_{5}$SiC,0.0,eV,,,,,,,
SrMgP$_{2}$O$_{7}$,5.3660000000000005,eV,,,,,,,
Sr$_{2}$UO$_{5}$,2.1693,eV,,,,,,,
Ag$_{8}$GeSe$_{6}$,0.0,eV,,,,,,,
Te$_{2}$Ru,0.11129999999999995,eV,,,,,,,
Na$_{3}$Ca$_{2}$TaO$_{6}$,4.244,eV,,,,,,,
K$_{6}$MnSe$_{4}$,1.2348999999999999,eV,,,,,,,
Yb$_{4}$Al$_{23}$Ni$_{6}$,0.0,eV,,,,,,,
Rb$_{6}$Si$_{2}$O$_{7}$,3.1374000000000004,eV,,,,,,,
La$_{3}$MnFeS$_{7}$,0.05370000000000008,eV,,,,,,,
Mn$_{2}$P,0,eV,,,,,,,
Sr$_{2}$SmNb(CuO$_{4}$)$_{2}$,0.0,eV,,,,,,,
SrLi(B$_{3}$O$_{5}$)$_{3}$,5.6482,eV,,,,,,,
Sr$_{3}$YRhO$_{6}$,2.1512000000000002,eV,,,,,,,
K$_{3}$Sn$_{4}$Au,0.4004000000000003,eV,,,,,,,
Ba(AgTe)$_{2}$,0.6732999999999998,eV,,,,,,,
BaSi$_{3}$SnO$_{9}$,3.7232,eV,,,,,,,
Al$_{2}$Re$_{3}$B,0.0,eV,,,,,,,
Ca$_{3}$(GeAs$_{2}$)$_{2}$,0.6160999999999999,eV,,,,,,,
CsHo$_{3}$Te$_{5}$,1.1293999999999995,eV,,,,,,,
SmZrF$_{7}$,6.050800000000001,eV,,,,,,,
KBe$_{3}$ZnF$_{9}$,6.2447,eV,,,,,,,
SnPd$_{2}$,0.0,eV,,,,,,,
Sr$_{2}$SiO$_{4}$,4.3787,eV,,,,,,,
NdF$_{3}$,7.668,eV,,,,,,,
Ba$_{2}$MnSe$_{3}$,1.0675,eV,,,,,,,
NaGdSiO$_{4}$,3.2325,eV,,,,,,,
UF$_{5}$,0.7489,eV,,,,,,,
Tm$_{2}$S$_{3}$,2.2738000000000005,eV,,,,,,,
Sr$_{3}$P$_{14}$,1.8254000000000001,eV,,,,,,,
K$_{2}$Cd$_{3}$Te$_{4}$,1.438,eV,,,,,,,
HoPS$_{4}$,2.1506999999999996,eV,,,,,,,
AgF$_{3}$,0.14480000000000004,eV,,,,,,,
EuPd$_{2}$,0.012800000000000367,eV,,,,,,,
CsEr$_{2}$Cu$_{3}$S$_{5}$,1.5296000000000003,eV,,,,,,,
Nd$_{2}$SiTeO$_{4}$,2.0488,eV,,,,,,,
NaGdGeO$_{4}$,3.2576,eV,,,,,,,
Ba$_{6}$Mg$_{7}$F$_{26}$,6.8161000000000005,eV,,,,,,,
KEr(SO$_{4}$)$_{2}$,5.8689,eV,,,,,,,
Rb$_{2}$Cd$_{3}$S$_{4}$,1.7838,eV,,,,,,,
LaSiNO$_{2}$,0.0,eV,,,,,,,
NpPO$_{4}$F,0.0,eV,,,,,,,
Ga$_{2}$AsRh$_{5}$,0.0,eV,,,,,,,
Na$_{2}$Si$_{2}$Se$_{5}$,2.4355,eV,,,,,,,
LaSnF$_{7}$,5.203,eV,,,,,,,
CaZn$_{11}$,0.0,eV,,,,,,,
Na$_{2}$Ge$_{2}$S$_{5}$,2.5142,eV,,,,,,,
YbCd,0.0,eV,,,,,,,
KEr(PO$_{3}$)$_{4}$,5.2945,eV,,,,,,,
La$_{3}$ZnNi$_{3}$,0.006199999999999761,eV,,,,,,,
Nb$_{2}$Zn$_{3}$O$_{8}$,2.9667000000000003,eV,,,,,,,
Tm$_{2}$Cu(B$_{2}$O$_{5}$)$_{2}$,0.6612999999999998,eV,,,,,,,
KAg$_{3}$S$_{2}$,1.3338999999999999,eV,,,,,,,
TlZnAsO$_{4}$,3.1473000000000004,eV,,,,,,,
HfO$_{2}$,4.2272,eV,,,,,,,
Hf$_{2}$Co$_{4}$P$_{3}$,0.0,eV,,,,,,,
Rb$_{2}$Ti(Si$_{2}$O$_{5}$)$_{3}$,3.4852999999999996,eV,,,,,,,
Ti$_{4}$Si$_{7}$Ni$_{4}$,0.0,eV,,,,,,,
Ho$_{2}$SiSeO$_{4}$,2.5657999999999994,eV,,,,,,,
RbAgSe$_{4}$,1.1614000000000002,eV,,,,,,,
NpMn$_{2}$,0.0,eV,,,,,,,
KZnPO$_{4}$,3.9535,eV,,,,,,,
K$_{3}$AsSe$_{3}$,2.1092,eV,,,,,,,
LuCu(BO$_{2}$)$_{5}$,0.7753999999999999,eV,,,,,,,
Ca$_{2}$ZnGe$_{2}$O$_{7}$,3.0488,eV,,,,,,,
Na$_{4}$Si$_{23}$,0.0,eV,,,,,,,
LaSi,0.0,eV,,,,,,,
ErGe$_{2}$Ir,0.00649999999999995,eV,,,,,,,
K$_{2}$Se$_{5}$,0.9322999999999999,eV,,,,,,,
Cu$_{2}$Te,0.0,eV,,,,,,,
Sm$_{2}$SiSeO$_{4}$,2.6087,eV,,,,,,,
Rb$_{2}$MoS$_{4}$,1.575,eV,,,,,,,
In$_{3}$Rh,0.0,eV,,,,,,,
Na$_{2}$Ge$_{2}$Se$_{5}$,1.5615,eV,,,,,,,
Mg(PO$_{3}$)$_{2}$,5.5284,eV,,,,,,,
Hf$_{7}$P$_{4}$,0.0,eV,,,,,,,
KPSe$_{6}$,1.8827999999999998,eV,,,,,,,
Dy$_{5}$B$_{2}$C$_{5}$,0.0,eV,,,,,,,
NaTmGeO$_{4}$,3.6137,eV,,,,,,,
SiAs,1.4518999999999997,eV,,,,,,,
SrNi$_{5}$P$_{3}$,0,eV,,,,,,,
K$_{8}$SnSb$_{4}$,0.31899999999999995,eV,,,,,,,
CdSO$_{3}$,3.0385999999999997,eV,,,,,,,
Sr$_{6}$GaN$_{5}$,0.3096000000000001,eV,,,,,,,
Ba$_{3}$Sn$_{5}$,0.0,eV,,,,,,,
Na$_{2}$Cu$_{3}$(GeO$_{3}$)$_{4}$,0.3064,eV,,,,,,,
La$_{2}$Si$_{2}$O$_{7}$,4.5641,eV,,,,,,,
LaP$_{5}$,0.0,eV,,,,,,,
LiTi$_{2}$(PO$_{4}$)$_{3}$,2.4404,eV,,,,,,,
Ca(YS$_{2}$)$_{2}$,1.5336999999999996,eV,,,,,,,
Sc$_{5}$(In$_{2}$Rh)$_{2}$,0.0,eV,,,,,,,
Nd$_{3}$Ti$_{3}$(SeO$_{4}$)$_{2}$,0,eV,,,,,,,
Zr$_{2}$Ni$_{12}$P$_{7}$,0.0,eV,,,,,,,
MnGeRh,0.0,eV,,,,,,,
UN,0.0,eV,,,,,,,
Sr$_{3}$DyRhO$_{6}$,2.1402000000000005,eV,,,,,,,
Sr$_{3}$HoRhO$_{6}$,2.1668,eV,,,,,,,
Cr$_{3}$Ga$_{4}$,0.0,eV,,,,,,,
Ba(SiRh)$_{2}$,0,eV,,,,,,,
GdGaO$_{3}$,3.3962000000000003,eV,,,,,,,
RbLaSiS$_{4}$,2.7894,eV,,,,,,,
KO$_{2}$,0.0,eV,,,,,,,
Sr(ScTe$_{2}$)$_{2}$,0.4482000000000008,eV,,,,,,,
KY(PO$_{3}$)$_{4}$,5.328399999999999,eV,,,,,,,