formula,Property Band Gap,Property Band Gap units,Property Band gap,Property Band gap units,Temperature (Property Band gap),Temperature (Property Band gap) units,Property Color,Temperature (Property Color),Temperature (Property Color) units
RbPS$_{3}$,1.8263000000000003,eV,,,,,,,
Ba$_{5}$Ru$_{2}$Cl$_{2}$O$_{9}$,0.02289999999999992,eV,,,,,,,
La$_{4}$S$_{3}$N$_{2}$,1.1936999999999998,eV,,,,,,,
SiO$_{2}$,5.4801,eV,,,,,,,
Pr$_{3}$CuGeS$_{7}$,1.6603000000000003,eV,,,,,,,
SiO$_{2}$,5.3934,eV,,,,,,,
NpAgSeO$_{5}$,0.07480000000000064,eV,,,,,,,
RbNa$_{3}$SnO$_{4}$,2.2514,eV,,,,,,,
BaB$_{4}$O$_{7}$,6.4658,eV,,,,,,,
Nd$_{3}$SiCuS$_{7}$,1.6179000000000006,eV,,,,,,,
Na$_{2}$S,2.1176000000000004,eV,,,,,,,
CsSmGeS$_{4}$,2.4631,eV,,,,,,,
SiCuO$_{3}$,0.5818,eV,,,,,,,
LaGaO$_{3}$,3.1939,eV,,,,,,,
SiO$_{2}$,5.6098,eV,,,,,,,
Er$_{2}$B$_{2}$Cl$_{2}$O$_{5}$,5.0806000000000004,eV,,,,,,,
ZnS,2.0305,eV,,,,,,,
SiO$_{2}$,5.3498,eV,,,,,,,
Nd$_{2}$O$_{3}$,3.6365,eV,,,,,,,
K$_{2}$LiAlF$_{6}$,7.2639,eV,,,,,,,
ErSeO$_{3}$F,4.2923,eV,,,,,,,
RbSO$_{4}$F,2.4272,eV,,,,,,,
Pr$_{9}$O$_{16}$,0,eV,,,,,,,
SiO$_{2}$,5.5806000000000004,eV,,,,,,,
Na$_{2}$SbSO$_{4}$F$_{3}$,4.4339,eV,,,,,,,
ZnS,2.0313999999999997,eV,,,,,,,
CdAs$_{2}$S$_{18}$N$_{12}$(OF$_{2}$)$_{6}$,2.1983,eV,,,,,,,
Li$_{3}$Sc(BO$_{3}$)$_{2}$,4.5439,eV,,,,,,,
TaP$_{4}$S$_{6}$Cl$_{5}$,2.2643999999999997,eV,,,,,,,
SiO$_{2}$,2.5295,eV,,,,,,,
Cs(CoS)$_{2}$,0.0,eV,,,,,,,
RbErSeCl$_{2}$O$_{3}$,4.3116,eV,,,,,,,
Sb$_{8}$Cl$_{2}$O$_{11}$,2.8915,eV,,,,,,,
NbVF$_{6}$,0.0,eV,,,,,,,
SiO$_{2}$,5.6788,eV,,,,,,,
K$_{2}$SeO$_{4}$,3.6435,eV,,,,,,,
ZnS,2.0263,eV,,,,,,,
Rb$_{2}$Be$_{2}$Si$_{2}$O$_{7}$,4.3938,eV,,,,,,,
Sr$_{2}$LaTa$_{3}$O$_{11}$,3.0179,eV,,,,,,,
PtS$_{4}$N$_{3}$Cl,1.5035999999999998,eV,,,,,,,
NaW$_{2}$(Br$_{3}$O)$_{2}$,0.020100000000000007,eV,,,,,,,
S,2.0442,eV,,,,,,,
Ba$_{5}$Hf$_{4}$S$_{13}$,0.6352000000000002,eV,,,,,,,
K$_{3}$SO$_{4}$F,5.2345,eV,,,,,,,
BaPrMn$_{2}$O$_{5}$,0,eV,,,,,,,
MnAs$_{2}$F$_{12}$,3.9706,eV,,,,,,,
Lu(PO$_{3}$)$_{3}$,5.666300000000001,eV,,,,,,,
Ba$_{2}$Nd$_{2}$Ti$_{2}$Cu$_{2}$O$_{11}$,0.0,eV,,,,,,,
Yb(ClO$_{4}$)$_{3}$,0.0,eV,,,,,,,
Cs$_{2}$NaCrF$_{6}$,3.9440999999999997,eV,,,,,,,
CdSbS$_{2}$Cl,1.6373000000000002,eV,,,,,,,
ZnS,2.0446999999999997,eV,,,,,,,
CuClF$_{10}$,0.0,eV,,,,,,,
Cr(AgO$_{2}$)$_{2}$,1.3899000000000001,eV,,,,,,,
NbO$_{2}$,0.16549999999999976,eV,,,,,,,
ZnS,0.0,eV,,,,,,,
RbSnS$_{4}$,1.3253999999999997,eV,,,,,,,
ZnS,2.0314,eV,,,,,,,
Ca$_{2}$BiAsO$_{6}$,3.2412,eV,,,,,,,
KBi$_{6}$ClO$_{9}$,2.3531000000000004,eV,,,,,,,
Ba$_{3}$TiNb$_{4}$O$_{15}$,2.4151,eV,,,,,,,
BaPr$_{2}$Ti$_{3}$O$_{10}$,1.9490000000000003,eV,,,,,,,
SiO$_{2}$,4.0358,eV,,,,,,,
SiH$_{17}$S$_{3}$N$_{5}$,3.344,eV,,,,,,,
H$_{2}$O,5.4788,eV,,,,,,,
Al$_{2}$Si$_{2}$CuO$_{7}$F$_{2}$,0.6347999999999998,eV,,,,,,,
FeS$_{4}$N$_{4}$Cl$_{3}$,0.9057999999999999,eV,,,,,,,
Rb$_{2}$Zn$_{3}$(P$_{2}$O$_{7}$)$_{2}$,4.4147,eV,,,,,,,
Bi$_{2}$Au$_{5}$F$_{21}$,1.4016,eV,,,,,,,
Y$_{3}$Si$_{2}$Cl$_{5}$O$_{6}$,4.5564,eV,,,,,,,
Ba$_{8}$V$_{7}$O$_{22}$,0.0,eV,,,,,,,
Ho$_{2}$(Ni$_{5}$B$_{3}$)$_{3}$,0.005399999999999849,eV,,,,,,,
Lu(PO$_{3}$)$_{3}$,5.7899,eV,,,,,,,
Sn(S$_{4}$I)$_{4}$,1.7663,eV,,,,,,,
B$_{5}$Pb$_{2}$ClO$_{9}$,3.4890000000000003,eV,,,,,,,
LiAlB$_{2}$O$_{5}$,5.4132,eV,,,,,,,
Ba$_{2}$Nb$_{2}$TeO$_{10}$,2.9816000000000003,eV,,,,,,,
Na$_{4}$Zr$_{2}$(GeO$_{4}$)$_{3}$,3.7249999999999996,eV,,,,,,,
Sr$_{3}$CaRu$_{2}$O$_{9}$,0.0,eV,,,,,,,
Li$_{4}$Ga$_{3}$Si$_{3}$IO$_{12}$,3.4396999999999993,eV,,,,,,,
Cs$_{2}$As$_{2}$OF$_{10}$,3.932,eV,,,,,,,
SiO$_{2}$,5.4995,eV,,,,,,,
K$_{2}$Sn(AuS$_{2}$)$_{2}$,1.6433,eV,,,,,,,
RbAu(SeO$_{4}$)$_{2}$,1.4106,eV,,,,,,,
Na$_{2}$Si$_{3}$CuO$_{8}$,0.7571000000000001,eV,,,,,,,
K$_{3}$ReClF$_{6}$,1.8139999999999998,eV,,,,,,,
NaPr(Si$_{3}$O$_{7}$)$_{2}$,4.789,eV,,,,,,,
Cs$_{6}$Na$_{2}$Nb$_{6}$H$_{36}$O$_{37}$,3.6182999999999996,eV,,,,,,,
Zn$_{2}$TeCl$_{2}$O$_{3}$,3.6546,eV,,,,,,,
Os$_{2}$O$_{3}$F$_{7}$,0.5983999999999999,eV,,,,,,,
Cs$_{2}$KMoF$_{6}$,4.1117,eV,,,,,,,
SiO$_{2}$,5.4591,eV,,,,,,,
Cu$_{3}$Se$_{2}$(ClO$_{3}$)$_{2}$,0,eV,,,,,,,
KCoO$_{2}$,0.0806,eV,,,,,,,
Li$_{2}$S,3.1532000000000004,eV,,,,,,,
Tl$_{2}$Cu(CO$_{3}$)$_{2}$,0.16129999999999978,eV,,,,,,,
TiAs$_{2}$O$_{7}$,2.5598,eV,,,,,,,
ZnS,2.0324,eV,,,,,,,
NaGaO$_{2}$,2.7914,eV,,,,,,,
CrMoF$_{6}$,2.5915999999999997,eV,,,,,,,
TaPbF$_{7}$,5.127800000000001,eV,,,,,,,
Na$_{2}$Cu(PO$_{3}$)$_{4}$,0.8701999999999999,eV,,,,,,,
Ba$_{5}$B$_{4}$(O$_{5}$F)$_{2}$,4.5127,eV,,,,,,,
Li$_{2}$Al(BO$_{2}$)$_{5}$,5.6317,eV,,,,,,,
NaSbS$_{2}$,0.45289999999999964,eV,,,,,,,
CaAs$_{2}$(XeF$_{5}$)$_{4}$,2.5746999999999995,eV,,,,,,,
K$_{3}$Na$_{3}$(NO$_{4}$)$_{2}$,4.0476,eV,,,,,,,
CaFeF$_{5}$,3.6380999999999997,eV,,,,,,,
KNaZnO$_{2}$,1.7772999999999999,eV,,,,,,,
CsTa$_{2}$P$_{5}$O$_{18}$,3.0509,eV,,,,,,,
LiPO$_{3}$,5.575200000000001,eV,,,,,,,
KCa$_{2}$Nb$_{3}$O$_{10}$,1.9567999999999999,eV,,,,,,,
Ho$_{2}$Te$_{5}$O$_{13}$,3.0071,eV,,,,,,,
K$_{4}$Nb$_{11}$Al$_{2}$O$_{20}$F,0.6705000000000005,eV,,,,,,,
SrZrO$_{3}$,3.3637000000000006,eV,,,,,,,
SiO$_{2}$,5.553599999999999,eV,,,,,,,
Te$_{2}$Xe(OF$_{5}$)$_{2}$,2.2917,eV,,,,,,,
HgSeO$_{3}$,2.5934,eV,,,,,,,
Cu$_{6}$GeWS$_{8}$,0.8154000000000003,eV,,,,,,,
KCa$_{12}$Si$_{4}$S$_{2}$O$_{26}$F,4.2813,eV,,,,,,,
KTeO$_{2}$F,3.7203,eV,,,,,,,
KSmPdO$_{3}$,0.7336,eV,,,,,,,
AlTlF$_{4}$,4.238300000000001,eV,,,,,,,
Mo$_{17}$O$_{47}$,0.01639999999999997,eV,,,,,,,
Te$_{2}$As$_{2}$Se$_{8}$S(OF$_{6}$)$_{2}$,0.0,eV,,,,,,,
K$_{5}$In$_{3}$(SiO$_{3}$)$_{7}$,3.8419000000000003,eV,,,,,,,
SiO$_{2}$,5.1733,eV,,,,,,,
K$_{2}$Be(CO$_{2}$)$_{4}$,3.4257,eV,,,,,,,
H$_{7}$C(NO)$_{3}$,3.3559,eV,,,,,,,
K$_{2}$UCu$_{3}$S$_{5}$,0.0,eV,,,,,,,
HgINO$_{3}$,1.9524000000000001,eV,,,,,,,
Tl$_{2}$CS$_{3}$,1.7532,eV,,,,,,,
RbP$_{3}$PbO$_{9}$,4.5591,eV,,,,,,,
KVF$_{3}$,2.0744000000000002,eV,,,,,,,
Tl$_{4}$Cu$_{4}$(P$_{2}$O$_{7}$)$_{3}$,0.028200000000000003,eV,,,,,,,
MoF$_{6}$,4.1644000000000005,eV,,,,,,,
RbSb$_{2}$F$_{7}$,4.2682,eV,,,,,,,
TbCu(MoO$_{4}$)$_{2}$,2.0663,eV,,,,,,,
H$_{6}$CN$_{2}$O$_{3}$,3.3317,eV,,,,,,,
SiO$_{2}$,5.4327000000000005,eV,,,,,,,
HgO$_{2}$,0.2876000000000001,eV,,,,,,,
KLi$_{4}$AlO$_{4}$,3.9726,eV,,,,,,,
Ba$_{2}$Hg$_{3}$(PdO$_{2}$)$_{7}$,0.0,eV,,,,,,,
AlS$_{2}$(NCl$_{2}$)$_{2}$,1.0461999999999998,eV,,,,,,,
Si$_{2}$Cu$_{4}$NiS$_{7}$,0.0,eV,,,,,,,
Na$_{2}$InNiF$_{7}$,4.1625,eV,,,,,,,
Rb$_{2}$Ce(NO$_{3}$)$_{6}$,1.491,eV,,,,,,,
Ho$_{11}$Te$_{16}$ClO$_{48}$,2.7859,eV,,,,,,,
TiP$_{2}$Cl$_{8}$O$_{3}$,2.7257,eV,,,,,,,
Na$_{2}$Si$_{2}$O$_{5}$,3.8875999999999995,eV,,,,,,,
BaCoF$_{4}$,2.9911,eV,,,,,,,
Li$_{2}$CdSiO$_{4}$,2.8338,eV,,,,,,,
Sr$_{2}$MnSbO$_{6}$,0.06510000000000016,eV,,,,,,,
Fe$_{2}$Pb$_{3}$F$_{12}$,3.1374999999999997,eV,,,,,,,
K$_{2}$Ti(Si$_{2}$O$_{5}$)$_{3}$,3.4391,eV,,,,,,,
S$_{2}$NO,2.2777,eV,,,,,,,
Ag$_{2}$NClO$_{3}$,1.7053000000000003,eV,,,,,,,
Sr$_{2}$SiCl$_{2}$O$_{3}$,5.1218,eV,,,,,,,
ZnS,2.0245,eV,,,,,,,
Sr$_{2}$GeO$_{4}$,3.566,eV,,,,,,,
InH$_{8}$C$_{4}$NO$_{10}$,3.5606,eV,,,,,,,
K$_{4}$Re$_{2}$Cl$_{10}$O,0.14159999999999995,eV,,,,,,,
As$_{4}$S$_{3}$,2.471,eV,,,,,,,
Bi$_{4}$Te$_{2}$Br$_{2}$O$_{9}$,0.8599999999999994,eV,,,,,,,
Cs$_{2}$CrF$_{6}$,0,eV,,,,,,,
Na$_{3}$Li$_{3}$Co$_{2}$F$_{12}$,1.8825999999999998,eV,,,,,,,
Li$_{3}$Zn$_{2}$SbO$_{6}$,2.4602,eV,,,,,,,
Sr$_{2}$B$_{5}$ClO$_{9}$,5.3411,eV,,,,,,,
FeS$_{4}$N$_{4}$Cl$_{3}$,0.9175,eV,,,,,,,
H$_{14}$C$_{5}$(SN)$_{2}$,2.6468,eV,,,,,,,
Ge$_{3}$Pb$_{5}$O$_{11}$,2.5011,eV,,,,,,,
Zn$_{3}$BPO$_{7}$,3.1967999999999996,eV,,,,,,,
ZnS,2.0266,eV,,,,,,,
Ca$_{2}$As$_{3}$Pb$_{3}$ClO$_{12}$,3.435,eV,,,,,,,
Bi(BO$_{2}$)$_{3}$,3.4257,eV,,,,,,,
CaP$_{2}$Xe$_{5}$F$_{22}$,2.7179,eV,,,,,,,
Tm$_{2}$Te$_{4}$O$_{11}$,3.2138,eV,,,,,,,
Rb$_{2}$SiP$_{4}$O$_{13}$,5.166600000000001,eV,,,,,,,
Cs$_{2}$Al$_{2}$Sb$_{2}$O$_{7}$,3.6378000000000004,eV,,,,,,,
AsPCl$_{3}$OF$_{5}$,4.5067,eV,,,,,,,
AlPO$_{4}$,5.5478000000000005,eV,,,,,,,
CdB$_{2}$F$_{8}$,5.4624,eV,,,,,,,
NaCdH$_{3}$(CO$_{2}$)$_{3}$,4.3046999999999995,eV,,,,,,,
K$_{2}$CaAs$_{2}$O$_{7}$,3.513,eV,,,,,,,
CaBi$_{2}$B$_{2}$O$_{7}$,3.1706,eV,,,,,,,
Rb$_{2}$Ge$_{4}$O$_{9}$,2.8753,eV,,,,,,,
Cu$_{2}$WS$_{4}$,1.5543,eV,,,,,,,
NaLiCO$_{3}$,4.4576,eV,,,,,,,
S,2.14,eV,,,,,,,
P$_{2}$H$_{6}$C$_{4}$N$_{2}$Cl$_{2}$O,2.9631,eV,,,,,,,
Rb$_{3}$U$_{3}$Ge$_{2}$O$_{13}$,0.5333999999999999,eV,,,,,,,
Ba$_{2}$ZnWO$_{6}$,3.4060000000000006,eV,,,,,,,
MgUB$_{2}$O$_{7}$,2.2225,eV,,,,,,,
K$_{4}$Ru(NO$_{2}$)$_{6}$,2.3638,eV,,,,,,,
Sr$_{2}$TmNbO$_{6}$,2.8576999999999995,eV,,,,,,,
Bi$_{2}$MoO$_{6}$,2.6393999999999997,eV,,,,,,,
Na$_{2}$Ca$_{2}$(CO$_{3}$)$_{3}$,4.8329,eV,,,,,,,
K$_{3}$AgC$_{4}$(SN)$_{4}$,3.5704,eV,,,,,,,
LiC$_{2}$S$_{2}$N(O$_{2}$F$_{3}$)$_{2}$,5.9283,eV,,,,,,,
Ag$_{2}$INO$_{3}$,1.7932,eV,,,,,,,
K$_{2}$MnF$_{6}$,3.2698,eV,,,,,,,
KSnSO$_{4}$F,3.8905999999999996,eV,,,,,,,
Na$_{6}$PbO$_{5}$,1.0040000000000002,eV,,,,,,,
LiFe$_{2}$F$_{6}$,1.7058,eV,,,,,,,
V$_{2}$Ni$_{2}$O$_{7}$,2.6664000000000003,eV,,,,,,,
NaB$_{3}$O$_{5}$,5.2573,eV,,,,,,,
K$_{3}$NaUC$_{3}$O$_{11}$,2.1423,eV,,,,,,,
NdTe$_{2}$BrO$_{5}$,2.3955,eV,,,,,,,
KRb$_{2}$VF$_{6}$,2.5191000000000003,eV,,,,,,,
BaSi$_{6}$N$_{8}$O,4.2279,eV,,,,,,,
As$_{2}$Cl$_{3}$OF$_{5}$,3.3000000000000003,eV,,,,,,,
ZnS,2.0311,eV,,,,,,,
KBaB$_{5}$O$_{9}$,4.8693,eV,,,,,,,
Na$_{2}$B$_{4}$O$_{7}$,5.1481,eV,,,,,,,
CaMnF$_{5}$,1.2945,eV,,,,,,,
K$_{2}$CoF$_{4}$,0.12359999999999993,eV,,,,,,,
GeClO$_{2}$F$_{5}$,1.7275,eV,,,,,,,
NaNb$_{2}$PS$_{10}$,1.6451999999999996,eV,,,,,,,
KBi(PS$_{3}$)$_{2}$,2.2234000000000003,eV,,,,,,,
Sm$_{2}$Ti$_{3}$(BiO$_{6}$)$_{2}$,1.8994999999999997,eV,,,,,,,
KAu(IO$_{3}$)$_{4}$,2.1081000000000003,eV,,,,,,,
Ba$_{2}$CaUO$_{6}$,2.1961000000000004,eV,,,,,,,
Na$_{2}$PtO$_{3}$,1.4969000000000001,eV,,,,,,,
CsReOF$_{6}$,2.9741,eV,,,,,,,
Mg(IO$_{3}$)$_{2}$,3.4734000000000003,eV,,,,,,,
La$_{2}$Zr$_{2}$O$_{7}$,0.07469999999999999,eV,,,,,,,
Li$_{4}$Al$_{3}$Ge$_{3}$IO$_{12}$,3.1208,eV,,,,,,,
TmSeO$_{3}$F,4.2903,eV,,,,,,,
NaZr$_{2}$CoF$_{11}$,3.2763,eV,,,,,,,
Na$_{3}$ScSi$_{2}$O$_{7}$,3.7748000000000004,eV,,,,,,,
SiO$_{2}$,5.522,eV,,,,,,,
BiF$_{3}$,3.9561999999999995,eV,,,,,,,
Li$_{4}$Ca(BO$_{3}$)$_{2}$,4.7254,eV,,,,,,,
K$_{5}$V$_{3}$F$_{14}$,0.0,eV,,,,,,,
K$_{2}$Sb$_{2}$S(O$_{2}$F$_{3}$)$_{2}$,4.3549,eV,,,,,,,
K$_{2}$Be$_{2}$(SiO$_{3}$)$_{3}$,4.809900000000001,eV,,,,,,,
K$_{5}$LiGe$_{2}$O$_{7}$,3.1502,eV,,,,,,,
Te$_{2}$SO$_{7}$,2.9042,eV,,,,,,,
Sr$_{4}$RhO$_{6}$,0.0,eV,,,,,,,
Ca$_{5}$As$_{3}$O$_{12}$F,3.9518000000000004,eV,,,,,,,
YbClF,6.0554,eV,,,,,,,
BiS$_{4}$N$_{3}$Cl$_{4}$,2.0457,eV,,,,,,,
RbFeF$_{4}$,2.9575000000000005,eV,,,,,,,
S,2.4187,eV,,,,,,,
LiLa$_{5}$Ti$_{8}$O$_{24}$,2.0496,eV,,,,,,,
MnP$_{4}$O$_{11}$,3.9973,eV,,,,,,,
AgBTe$_{4}$C$_{2}$(O$_{3}$F$_{10}$)$_{2}$,2.8863000000000003,eV,,,,,,,
Pr$_{2}$Nb$_{11}$O$_{30}$,0.0,eV,,,,,,,
NaBi$_{2}$AuO$_{5}$,0.8399000000000001,eV,,,,,,,
GdTaO$_{4}$,3.2685999999999997,eV,,,,,,,
LiNi(PS$_{3}$)$_{2}$,0.0026999999999999247,eV,,,,,,,
KUP$_{3}$O$_{11}$,2.3388,eV,,,,,,,
Na$_{3}$Ca$_{2}$BiO$_{6}$,1.7528,eV,,,,,,,
NaLaH$_{2}$S$_{2}$O$_{9}$,4.6572000000000005,eV,,,,,,,
Cu$_{3}$TeS$_{3}$Cl,0.7738999999999994,eV,,,,,,,
LaH$_{4}$C$_{4}$NO$_{8}$,3.2798000000000003,eV,,,,,,,
CrBiO$_{3}$,1.8417000000000003,eV,,,,,,,
K$_{2}$Be$_{2}$Zn$_{2}$Si$_{3}$O$_{11}$,3.5046999999999997,eV,,,,,,,
Tb$_{3}$CuGeS$_{7}$,1.7968000000000002,eV,,,,,,,
CaCrF$_{6}$,1.687,eV,,,,,,,
PH$_{8}$C$_{2}$NO$_{4}$,5.544499999999999,eV,,,,,,,
PCl$_{2}$OF,4.9892,eV,,,,,,,
ScH$_{3}$(CO$_{2}$)$_{3}$,3.4017999999999997,eV,,,,,,,
Na$_{5}$P$_{3}$O$_{10}$,4.5621,eV,,,,,,,
Pb$_{2}$S(O$_{2}$F)$_{2}$,3.7955,eV,,,,,,,
Cs$_{2}$TlVF$_{6}$,0.0,eV,,,,,,,
Zn$_{4}$P$_{6}$N$_{12}$O,2.9652,eV,,,,,,,
Na$_{2}$Gd$_{2}$MgSi$_{4}$(O$_{6}$F)$_{2}$,3.4215,eV,,,,,,,
MoF$_{3}$,3.5743,eV,,,,,,,
Rb$_{2}$AgSbS$_{4}$,1.4011000000000002,eV,,,,,,,
K$_{3}$LuSi$_{2}$O$_{7}$,3.6083,eV,,,,,,,
Fe(PO$_{3}$)$_{3}$,2.7830999999999997,eV,,,,,,,
Sr$_{2}$CuF$_{6}$,1.068,eV,,,,,,,
S,2.4962999999999997,eV,,,,,,,
LiH$_{4}$SNO$_{4}$,5.2109,eV,,,,,,,
Sm$_{6}$Si$_{4}$S$_{17}$,2.4769999999999994,eV,,,,,,,
TiH$_{8}$C$_{4}$NO$_{10}$,0.018899999999999917,eV,,,,,,,
CeNbO$_{4}$,0.0,eV,,,,,,,
KC(NO$_{2}$)$_{3}$,2.1521,eV,,,,,,,
SmAsS,0.08270000000000088,eV,,,,,,,
TeAs(BrF$_{2}$)$_{3}$,3.0852000000000004,eV,,,,,,,
Cu$_{2}$HgGeS$_{4}$,0.03849999999999998,eV,,,,,,,
K$_{3}$ScSi$_{2}$O$_{7}$,3.6385,eV,,,,,,,
CdHg$_{4}$C$_{6}$S$_{6}$(Br$_{2}$N$_{3}$)$_{2}$,1.866,eV,,,,,,,
ZnH$_{2}$(CO$_{2}$)$_{2}$,4.5082,eV,,,,,,,
TlInAs$_{2}$O$_{7}$,2.992,eV,,,,,,,
K$_{4}$Ba(GeO$_{3}$)$_{3}$,3.2293,eV,,,,,,,
Lu(PO$_{3}$)$_{3}$,5.6749,eV,,,,,,,
Nd$_{4}$Ti$_{9}$O$_{24}$,2.8453000000000004,eV,,,,,,,
TlZn(PO$_{3}$)$_{3}$,4.5196,eV,,,,,,,
NaNbO$_{2}$F,0.0,eV,,,,,,,
SiO$_{2}$,5.6144,eV,,,,,,,
CrAg(PS$_{3}$)$_{2}$,0.9260000000000002,eV,,,,,,,
K$_{2}$Ca(NO$_{2}$)$_{4}$,2.4394,eV,,,,,,,
Rb$_{2}$Bi(ClO$_{4}$)$_{5}$,4.0938,eV,,,,,,,
SbC$_{2}$N(OF$_{3}$)$_{2}$,4.6213999999999995,eV,,,,,,,
KBa$_{4}$Au(CO)$_{4}$,2.6467,eV,,,,,,,
AlPO$_{4}$,5.667,eV,,,,,,,
Hg$_{2}$Pb(SI)$_{2}$,1.6317,eV,,,,,,,
SbAs$_{3}$(Se$_{2}$F$_{3}$)$_{2}$,1.8713000000000002,eV,,,,,,,
K$_{2}$Mn$_{2}$Be$_{3}$F$_{12}$,4.5317,eV,,,,,,,
Cd(PO$_{3}$)$_{2}$,3.7122,eV,,,,,,,
K$_{3}$Np(H$_{3}$O$_{4}$)$_{2}$,1.4329,eV,,,,,,,
Rb$_{4}$Si$_{2}$CuO$_{7}$,0.0,eV,,,,,,,
Bi$_{14}$Te$_{13}$S$_{8}$,0.5462999999999996,eV,,,,,,,
Yb$_{3}$GeO,0.0,eV,,,,,,,
Gd$_{2}$TiO$_{5}$,2.9501999999999997,eV,,,,,,,
AsS(IF$_{3}$)$_{2}$,1.1714,eV,,,,,,,
AgAs(XeF$_{5}$)$_{2}$,1.4374000000000002,eV,,,,,,,
K$_{2}$LiBO$_{3}$,3.6258,eV,,,,,,,
Sb$_{2}$TeSeF$_{10}$,1.5148,eV,,,,,,,
Hg$_{2}$SeO$_{3}$,2.3228,eV,,,,,,,
Nb$_{3}$SnS$_{6}$,0.0,eV,,,,,,,
Ag$_{2}$P$_{2}$PbO$_{7}$,0.0,eV,,,,,,,
K$_{5}$NaS$_{4}$(ClO$_{6}$)$_{2}$,5.1579,eV,,,,,,,
K$_{2}$Ce(Si$_{2}$O$_{5}$)$_{3}$,2.2218999999999998,eV,,,,,,,
Sr$_{3}$P$_{6}$(N$_{4}$O$_{3}$)$_{2}$,4.4971,eV,,,,,,,
SiO$_{2}$,4.1137999999999995,eV,,,,,,,
GdTlS$_{2}$,0.8492000000000002,eV,,,,,,,
RbNaSi$_{2}$O$_{5}$,4.4435,eV,,,,,,,
RbZnB(PO$_{4}$)$_{2}$,0.0,eV,,,,,,,
Sb$_{4}$PdC$_{4}$(O$_{2}$F$_{11}$)$_{2}$,3.2589,eV,,,,,,,
Ca$_{2}$Mg$_{5}$Si$_{8}$(O$_{11}$F)$_{2}$,5.0192000000000005,eV,,,,,,,
Cs$_{2}$TlBiF$_{6}$,3.0672999999999995,eV,,,,,,,
K$_{3}$Sn$_{5}$Cl$_{3}$F$_{10}$,3.2914000000000003,eV,,,,,,,
Ge$_{3}$Pb$_{5}$O$_{11}$,2.4115,eV,,,,,,,
MnPtF$_{6}$,1.8679000000000001,eV,,,,,,,
Ga$_{2}$Pb$_{2}$S$_{5}$,1.9122,eV,,,,,,,
RbBe$_{2}$P$_{3}$O$_{10}$,5.6227,eV,,,,,,,
KNaSi$_{2}$O$_{5}$,4.2837,eV,,,,,,,
NbAgO$_{3}$,0.8148999999999997,eV,,,,,,,
Zn$_{3}$(BO$_{3}$)$_{2}$,2.7833,eV,,,,,,,
NbIO$_{2}$,1.0522,eV,,,,,,,
ZrVF$_{6}$,2.4087,eV,,,,,,,
TlHCO$_{2}$,3.4859,eV,,,,,,,
CaAl$_{2}$B$_{2}$O$_{7}$,4.8228,eV,,,,,,,
La$_{2}$O$_{3}$,3.4110000000000005,eV,,,,,,,
Ba$_{3}$Tl$_{2}$Cl$_{2}$O$_{5}$,0.0,eV,,,,,,,
CsZnPO$_{4}$,4.1531,eV,,,,,,,
Na$_{5}$Y$_{4}$Si$_{4}$O$_{16}$F,4.7696000000000005,eV,,,,,,,
Hg$_{2}$Sb$_{2}$O$_{7}$,0.0,eV,,,,,,,
K$_{4}$Na$_{2}$TeO$_{6}$,2.4042,eV,,,,,,,
Ce(GeRh)$_{2}$,0.0,eV,,,,,,,
K$_{2}$RuI$_{5}$NO,1.3952,eV,,,,,,,
TlNO$_{3}$,2.8691,eV,,,,,,,
OsO$_{2}$F$_{3}$,0.5722,eV,,,,,,,
K$_{3}$Nb$_{3}$(BO$_{6}$)$_{2}$,2.3808000000000002,eV,,,,,,,
Ba$_{2}$LaTaO$_{6}$,3.6312,eV,,,,,,,
Cd(AuF$_{6}$)$_{2}$,1.8022,eV,,,,,,,
PbS,2.0786,eV,,,,,,,
CeF$_{3}$,0.0,eV,,,,,,,
LaSO,1.5305,eV,,,,,,,
SiO$_{2}$,3.5612999999999997,eV,,,,,,,
KBiF$_{6}$,2.6644,eV,,,,,,,
Gd$_{2}$Au$_{5}$F$_{21}$,1.6190000000000002,eV,,,,,,,
KCu$_{4}$AsS$_{4}$,1.3059999999999996,eV,,,,,,,
Dy(PO$_{3}$)$_{3}$,5.5908,eV,,,,,,,
KNiIO$_{6}$,1.7517999999999998,eV,,,,,,,
BaCuTe$_{2}$O$_{7}$,0.0,eV,,,,,,,
Al$_{2}$BiS$_{4}$,2.6365,eV,,,,,,,
Li$_{3}$BiO$_{4}$,1.0578999999999996,eV,,,,,,,
CoBiO$_{3}$,0.8266999999999998,eV,,,,,,,
Ba$_{17}$Tm$_{16}$Zn$_{8}$Pt$_{4}$O$_{57}$,2.3147,eV,,,,,,,
KCaAl$_{2}$F$_{9}$,7.1437,eV,,,,,,,
NaUBO$_{5}$,1.9151,eV,,,,,,,
Zn$_{2}$SeCl$_{2}$O$_{3}$,4.0926,eV,,,,,,,
K$_{2}$SrP$_{2}$O$_{7}$,4.7677,eV,,,,,,,
SbIrC$_{2}$(OF$_{3}$)$_{2}$,2.4943,eV,,,,,,,
CsHSO$_{4}$,5.5519,eV,,,,,,,
K$_{3}$PO$_{4}$,4.0019,eV,,,,,,,
ZrP$_{2}$O$_{7}$,4.0937,eV,,,,,,,
Li$_{4}$Zn(PO$_{4}$)$_{2}$,4.676,eV,,,,,,,
AlPO$_{4}$,5.632,eV,,,,,,,
LaMg(BO$_{2}$)$_{5}$,4.7440999999999995,eV,,,,,,,
KBa$_{4}$Sb$_{3}$O,1.0220000000000002,eV,,,,,,,
Nd$_{3}$NbO$_{7}$,2.8045999999999998,eV,,,,,,,
Sr$_{2}$Ni(PO$_{4}$)$_{2}$,3.9939000000000004,eV,,,,,,,
CaH$_{2}$C$_{2}$O$_{5}$,3.5377,eV,,,,,,,
SiO$_{2}$,2.3054,eV,,,,,,,
CsNiF$_{3}$,5.3618,eV,,,,,,,
Sc$_{2}$TeO$_{6}$,2.8859999999999997,eV,,,,,,,
PSN(Cl$_{2}$O)$_{2}$,4.0739,eV,,,,,,,
K$_{2}$ScSi$_{4}$O$_{10}$F,4.7453,eV,,,,,,,
RbNbSiO$_{5}$,3.2067,eV,,,,,,,
CsSi$_{2}$HO$_{5}$,4.8193,eV,,,,,,,
LaNbTeO$_{6}$,3.2977999999999996,eV,,,,,,,
MnH$_{21}$C$_{7}$S$_{3}$N,0.0,eV,,,,,,,
CaNb$_{2}$P$_{2}$O$_{11}$,2.4718,eV,,,,,,,
TlSbO$_{3}$,2.4363,eV,,,,,,,
Te$_{4}$As$_{2}$S(OF$_{6}$)$_{2}$,1.2113,eV,,,,,,,
HfSCl$_{6}$O,3.2525,eV,,,,,,,
Rb$_{4}$LiZr$_{3}$H$_{2}$F$_{19}$,6.1954,eV,,,,,,,
Yb$_{3}$SiO,0.0,eV,,,,,,,
K$_{5}$Li$_{2}$NdF$_{10}$,6.4521999999999995,eV,,,,,,,
As$_{2}$Pb(XeF$_{6}$)$_{3}$,2.6752000000000002,eV,,,,,,,
LuB$_{2}$Ru$_{3}$,0.0,eV,,,,,,,
K$_{2}$Be(Si$_{2}$O$_{5}$)$_{2}$,4.6976,eV,,,,,,,
MgSiO$_{3}$,4.6751000000000005,eV,,,,,,,
MnBiS$_{2}$Br,0.7536000000000005,eV,,,,,,,
Er$_{2}$Tc$_{2}$O$_{7}$,0.0,eV,,,,,,,
CsK$_{2}$AuO$_{2}$,2.1806,eV,,,,,,,
SbSCl$_{9}$,1.7553999999999998,eV,,,,,,,
BaH$_{6}$F$_{8}$,7.5667,eV,,,,,,,
SiO$_{2}$,1.0636,eV,,,,,,,
H$_{12}$PbC$_{4}$S$_{4}$(NO$_{4}$)$_{2}$,4.624499999999999,eV,,,,,,,
SbXeO$_{2}$F$_{7}$,2.0896,eV,,,,,,,
Rb$_{2}$(ReS$_{2}$)$_{3}$,1.359,eV,,,,,,,
H$_{4}$CN$_{2}$O,4.7048,eV,,,,,,,
Li$_{3}$U$_{7}$(PO$_{7}$)$_{5}$,1.9176,eV,,,,,,,
HoPH$_{5}$CO$_{7}$,3.7117,eV,,,,,,,
Lu$_{2}$Te$_{5}$O$_{13}$,3.0335,eV,,,,,,,
Na$_{2}$Bi$_{5}$AuO$_{11}$,0.8920000000000003,eV,,,,,,,
K$_{2}$Cd(AuS)$_{4}$,2.031,eV,,,,,,,
Ti(Ag$_{4}$S$_{3}$)$_{2}$,0.6463000000000001,eV,,,,,,,
TlF,2.9859,eV,,,,,,,
Na$_{5}$B$_{2}$P$_{3}$O$_{13}$,5.0786999999999995,eV,,,,,,,
SiO$_{2}$,5.7667,eV,,,,,,,
Sr$_{2}$Fe$_{2}$Se$_{2}$OF$_{2}$,1.9043999999999999,eV,,,,,,,
NaLa(SO$_{4}$)$_{2}$,4.1818,eV,,,,,,,
AlPO$_{4}$,5.4534,eV,,,,,,,
KMg$_{4}$(PO$_{4}$)$_{3}$,4.9852,eV,,,,,,,
Na$_{2}$TiS$_{2}$O,2.4722999999999997,eV,,,,,,,
Na$_{3}$Li$_{3}$V$_{2}$F$_{12}$,2.5214,eV,,,,,,,
TiH$_{8}$C$_{4}$NO$_{10}$,0.022900000000000142,eV,,,,,,,
CaGaBO$_{4}$,3.9612,eV,,,,,,,
BCl(OF$_{2}$)$_{2}$,1.9494,eV,,,,,,,
SrLi$_{2}$Nb$_{2}$O$_{7}$,1.6613,eV,,,,,,,
Cs$_{3}$U$_{2}$Ge$_{2}$O$_{11}$,0.04100000000000037,eV,,,,,,,
Li$_{2}$CaTa$_{2}$O$_{7}$,2.1401,eV,,,,,,,
BaAg$_{2}$(HgO$_{2}$)$_{2}$,1.3289,eV,,,,,,,
K$_{2}$Ag$_{4}$Pt$_{3}$(NO$_{2}$)$_{12}$,1.8308,eV,,,,,,,
NO$_{2}$,2.781,eV,,,,,,,
S,2.6076,eV,,,,,,,
LaF$_{3}$,4.9708,eV,,,,,,,
CuAsPbO$_{4}$,1.7890000000000001,eV,,,,,,,
SiO$_{2}$,5.6831,eV,,,,,,,
KAg(PO$_{3}$)$_{2}$,2.9041,eV,,,,,,,
Rb$_{3}$In(PO$_{4}$)$_{2}$,3.5923,eV,,,,,,,
C$_{2}$SeS$_{2}$O$_{7}$F$_{6}$,3.6234,eV,,,,,,,
KPO$_{3}$,5.342,eV,,,,,,,
SiO$_{2}$,5.5233,eV,,,,,,,
BaCr$_{4}$S$_{7}$,0.11960000000000015,eV,,,,,,,
K$_{5}$U$_{2}$O$_{4}$F$_{9}$,2.7062,eV,,,,,,,
Er$_{2}$Hf$_{2}$O$_{7}$,3.0000999999999998,eV,,,,,,,
BaLi(BS$_{2}$)$_{3}$,2.8639,eV,,,,,,,
SiO$_{2}$,5.718299999999999,eV,,,,,,,
SbCSCl$_{2}$F$_{9}$,3.8,eV,,,,,,,
Lu$_{2}$Ru$_{2}$O$_{7}$,0.0,eV,,,,,,,
SbSe$_{2}$S(NF$_{3}$)$_{2}$,1.5549,eV,,,,,,,
AsH$_{5}$COF$_{6}$,5.032500000000001,eV,,,,,,,
Zr(PO$_{3}$)$_{4}$,4.1549,eV,,,,,,,
Cd$_{2}$PO$_{4}$F,2.3693,eV,,,,,,,
Al$_{3}$Pb$_{5}$F$_{19}$,4.815,eV,,,,,,,
Cs$_{2}$MnF$_{6}$,3.2382,eV,,,,,,,
DyTaO$_{4}$,4.1277,eV,,,,,,,
AlPO$_{4}$,5.4597,eV,,,,,,,
V$_{3}$(Bi$_{3}$O$_{8}$)$_{2}$,2.1746000000000003,eV,,,,,,,
SbI(OF$_{4}$)$_{2}$,2.2626999999999997,eV,,,,,,,
KGaAs$_{2}$O$_{7}$,2.6826,eV,,,,,,,
Zn$_{3}$(PO$_{4}$)$_{2}$,3.4139,eV,,,,,,,
CdAs$_{2}$(XeF$_{5}$)$_{4}$,2.3693999999999997,eV,,,,,,,
Tl(Cu$_{3}$S$_{2}$)$_{2}$,0.0,eV,,,,,,,
SiO$_{2}$,5.6398,eV,,,,,,,
SiO$_{2}$,5.5245,eV,,,,,,,
Dy$_{2}$Cu(BO$_{2}$)$_{8}$,0.8659000000000003,eV,,,,,,,
Zn$_{4}$Cu$_{5}$(TeO$_{6}$)$_{3}$,0.0,eV,,,,,,,
HfVF$_{6}$,3.221,eV,,,,,,,
KNd(CO$_{3}$)$_{2}$,4.3598,eV,,,,,,,
K$_{4}$AsH$_{5}$S$_{3}$O$_{16}$,3.9373,eV,,,,,,,
Cu$_{3}$Se$_{2}$(ClO$_{3}$)$_{2}$,0.10180000000000011,eV,,,,,,,
TiZn(BiO$_{3}$)$_{2}$,1.6179999999999994,eV,,,,,,,
RbInP$_{2}$O$_{7}$,3.8119,eV,,,,,,,
Hg$_{3}$TeO$_{6}$,0.6009,eV,,,,,,,
GaN$_{5}$O$_{14}$,1.1872,eV,,,,,,,