formula,Property Band Gap,Property Band Gap units,Property Band gap,Property Band gap units,Temperature (Property Band gap),Temperature (Property Band gap) units,Property Color,Temperature (Property Color),Temperature (Property Color) units
Li$_{2}$SO$_{4}$,6.1629000000000005,eV,,,,,,,
Li$_{4}$GeO$_{4}$,4.0961,eV,,,,,,,
BaCO$_{3}$,4.4099,eV,,,,,,,
UAl$_{3}$Pd$_{2}$,0.0,eV,,,,,,,
La(GeRh)$_{2}$,0.0,eV,,,,,,,
Ti$_{3}$TlC,0.0,eV,,,,,,,
Ba$_{4}$Nb$_{14}$O$_{23}$,0.0,eV,,,,,,,
CeBe$_{13}$,0.0,eV,,,,,,,
CaZrO$_{3}$,3.8263000000000003,eV,,,,,,,
TlSbTe$_{2}$,0.15500000000000025,eV,,,,,,,
YbTaO$_{4}$,0.0,eV,,,,,,,
MgGeO$_{3}$,2.9034000000000004,eV,,,,,,,
Y$_{3}$(AlNi$_{3}$)$_{2}$,0.0,eV,,,,,,,
Sr$_{2}$GeS$_{4}$,2.3165000000000004,eV,,,,,,,
LaSiRu,0.0,eV,,,,,,,
Ti$_{2}$O$_{3}$,0.0,eV,,,,,,,
NdRhO$_{3}$,0.6467999999999998,eV,,,,,,,
NbCo$_{2}$Sn,0.0,eV,,,,,,,
Tl$_{3}$BO$_{3}$,1.303,eV,,,,,,,
Pr$_{6}$Fe$_{13}$Au,0.0011999999999998678,eV,,,,,,,
LiAlTe$_{2}$,2.4411,eV,,,,,,,
DyNiC$_{2}$,0,eV,,,,,,,
PrPO$_{4}$,5.6478,eV,,,,,,,
Mg(GaO$_{2}$)$_{2}$,3.1080999999999994,eV,,,,,,,
SrNb$_{2}$O$_{6}$,2.9952,eV,,,,,,,
Mn$_{3}$AlC,0.0,eV,,,,,,,
VFe$_{2}$Si,0.0,eV,,,,,,,
Sr$_{2}$RuO$_{4}$,0.0,eV,,,,,,,
Y$_{2}$B$_{5}$Pd$_{14}$,0.0,eV,,,,,,,
Sr$_{4}$PtO$_{6}$,2.2142999999999997,eV,,,,,,,
Ce(TeO$_{3}$)$_{2}$,1.3596999999999997,eV,,,,,,,
Ti,0.0,eV,,,,,,,
PrZn,0.0,eV,,,,,,,
Tb$_{2}$Ti$_{2}$O$_{7}$,2.7256,eV,,,,,,,
Nd$_{3}$Co$_{13}$B$_{2}$,0.0,eV,,,,,,,
Li$_{7}$VN$_{4}$,3.011,eV,,,,,,,
U(Al$_{2}$Fe)$_{4}$,0.0,eV,,,,,,,
KPF$_{6}$,7.0206,eV,,,,,,,
HfSiO$_{4}$,5.311100000000001,eV,,,,,,,
Th(SiPt)$_{2}$,0.0,eV,,,,,,,
TiCo$_{2}$Ge,0.0,eV,,,,,,,
Zr$_{2}$SnC,0.0,eV,,,,,,,
Tb(SiAg)$_{2}$,0.0,eV,,,,,,,
Rb$_{2}$SeO$_{4}$,3.6361,eV,,,,,,,
Li$_{2}$BeF$_{4}$,7.5936,eV,,,,,,,
TaBO$_{4}$,3.4514,eV,,,,,,,
CaCO$_{3}$,4.171200000000001,eV,,,,,,,
CoAsS,0.9407000000000005,eV,,,,,,,
ZrSiSe,0.0,eV,,,,,,,
KF,5.9956,eV,,,,,,,
Li$_{2}$RuO$_{3}$,0.0,eV,,,,,,,
Sr$_{3}$(PO$_{4}$)$_{2}$,5.4064000000000005,eV,,,,,,,
Yb(SiPd)$_{2}$,0.0,eV,,,,,,,
LaNi$_{4}$B,0,eV,,,,,,,
ScCuO$_{2}$,2.3904999999999994,eV,,,,,,,
TlCrTe$_{2}$,0.0,eV,,,,,,,
HoSe,0.0,eV,,,,,,,
Nb$_{2}$CuO$_{6}$,0.27600000000000025,eV,,,,,,,
Si$_{2}$N$_{2}$O,4.410699999999999,eV,,,,,,,
K$_{3}$(Cu$_{4}$Se$_{3}$)$_{2}$,0.5441000000000003,eV,,,,,,,
KTeF$_{5}$,5.2046,eV,,,,,,,
PdSe$_{2}$O$_{5}$,0.9946999999999999,eV,,,,,,,
SrTiO$_{3}$,1.8487999999999998,eV,,,,,,,
MnRh$_{2}$Pb,0.0,eV,,,,,,,
SrTl$_{2}$O$_{4}$,0.08289999999999997,eV,,,,,,,
Y(Al$_{2}$Fe)$_{4}$,0.0,eV,,,,,,,
Li$_{5}$GaO$_{4}$,3.763,eV,,,,,,,
La(BO$_{2}$)$_{3}$,4.542,eV,,,,,,,
Cd(PO$_{3}$)$_{2}$,3.9273000000000002,eV,,,,,,,
Nb$_{2}$F$_{5}$,0.14979999999999993,eV,,,,,,,
Tm(FeGe)$_{2}$,0.0,eV,,,,,,,
ScOF,4.475899999999999,eV,,,,,,,
ScOF,4.5928,eV,,,,,,,
Yb$_{2}$CdPd$_{2}$,0.0,eV,,,,,,,
MnGeRh$_{2}$,0.0,eV,,,,,,,
CdSiP$_{2}$,1.4259000000000004,eV,,,,,,,
ZrSnRh,0.0,eV,,,,,,,
K(CoSe)$_{2}$,0.0,eV,,,,,,,
Th$_{3}$N$_{4}$,1.4415000000000004,eV,,,,,,,
TbPS$_{4}$,2.1701999999999995,eV,,,,,,,
SrHfO$_{3}$,3.9571,eV,,,,,,,
BNF$_{8}$,2.9979,eV,,,,,,,
NaTaO$_{3}$,2.2798000000000003,eV,,,,,,,
La$_{3}$(B$_{3}$Ru$_{4}$)$_{2}$,0.0,eV,,,,,,,
Zr$_{2}$AlN,0.0,eV,,,,,,,
AlF$_{3}$,7.6012,eV,,,,,,,
NaNbO$_{3}$,2.3639,eV,,,,,,,
ZnSeO$_{3}$,3.4386,eV,,,,,,,
Al$_{7}$FeCu$_{2}$,0.0,eV,,,,,,,
K$_{3}$TaO$_{8}$,2.9894,eV,,,,,,,
Ag$_{2}$CO$_{3}$,0.6150000000000002,eV,,,,,,,
Dy(SiNi)$_{2}$,0.0,eV,,,,,,,
RbAlF$_{4}$,6.9437999999999995,eV,,,,,,,
Zn(CrSe$_{2}$)$_{2}$,0.044099999999999806,eV,,,,,,,
K$_{2}$Ge$_{8}$O$_{17}$,2.8995,eV,,,,,,,
NaTaO$_{3}$,2.3846,eV,,,,,,,
C,3.3392,eV,,,,,,,
GeO$_{2}$,1.2307000000000001,eV,,,,,,,
CuSnF$_{6}$,0.30110000000000003,eV,,,,,,,
Th(Al$_{2}$Fe)$_{4}$,0.0,eV,,,,,,,
PrNbO$_{4}$,3.7546999999999997,eV,,,,,,,
CdAs$_{2}$,0.1511,eV,,,,,,,
Hg$_{3}$(BO$_{3}$)$_{2}$,2.6125,eV,,,,,,,
Li$_{2}$CuO$_{2}$,0.0,eV,,,,,,,
NdTaO$_{4}$,4.0262,eV,,,,,,,
UAl$_{2}$,0.0,eV,,,,,,,
Si$_{2}$Ni$_{6}$B,0.0,eV,,,,,,,
RbSb$_{3}$Se$_{5}$,1.2305000000000001,eV,,,,,,,
Nd(GePd)$_{2}$,0.0,eV,,,,,,,
Ba(SbSe$_{2}$)$_{2}$,0.9964999999999997,eV,,,,,,,
Cu$_{2}$GeSe$_{3}$,0.0,eV,,,,,,,
Er(MnSi)$_{2}$,0,eV,,,,,,,
Na$_{3}$P$_{11}$,1.8326000000000002,eV,,,,,,,
Ga$_{2}$HgSe$_{4}$,0.9168000000000001,eV,,,,,,,
K$_{2}$UF$_{6}$,0.06559999999999988,eV,,,,,,,
UGa$_{5}$Co,0.0,eV,,,,,,,
ThTi$_{2}$O$_{6}$,3.1455999999999995,eV,,,,,,,
NaPO$_{3}$,4.971,eV,,,,,,,
TbCo$_{9}$Si$_{4}$,0.0,eV,,,,,,,
NdP$_{5}$O$_{14}$,5.3904,eV,,,,,,,
PrScGe,0.0,eV,,,,,,,
ErFe$_{2}$,0.0,eV,,,,,,,
Y(CrSi)$_{2}$,0.0,eV,,,,,,,
Ho(GePd)$_{2}$,0.0,eV,,,,,,,
ErTiGe,0.0,eV,,,,,,,
Ca(NiAs)$_{2}$,0.0,eV,,,,,,,
Ca$_{2}$SnO$_{4}$,2.7136000000000005,eV,,,,,,,
NaNbO$_{3}$,1.6810000000000003,eV,,,,,,,
SnP,0.0,eV,,,,,,,
Na$_{5}$Al$_{3}$F$_{14}$,6.548500000000001,eV,,,,,,,
Al$_{2}$SiO$_{5}$,4.835500000000001,eV,,,,,,,
Sc$_{3}$Fe$_{2}$Si$_{3}$,0.0,eV,,,,,,,
ZnSnSb$_{2}$,8.999999999996788E-4,eV,,,,,,,
KReO$_{4}$,4.0028,eV,,,,,,,
K$_{2}$NbF$_{7}$,4.5283999999999995,eV,,,,,,,
ZrTe$_{3}$O$_{8}$,3.6712,eV,,,,,,,
Ge$_{3}$N$_{4}$,1.9150999999999998,eV,,,,,,,
TlAg$_{3}$S$_{2}$,0.9032999999999998,eV,,,,,,,
ZnSiP$_{2}$,1.3636999999999997,eV,,,,,,,
Pr$_{2}$SeO$_{2}$,2.1691000000000003,eV,,,,,,,
Ce(SiOs)$_{2}$,0.0,eV,,,,,,,
Eu(SiNi)$_{2}$,0.0,eV,,,,,,,
SiP$_{2}$O$_{7}$,5.8048,eV,,,,,,,
SmGa$_{2}$,0.0,eV,,,,,,,
Na$_{2}$SO$_{4}$,4.9811000000000005,eV,,,,,,,
TiAlCu$_{2}$,0.0,eV,,,,,,,
Li$_{2}$B$_{4}$O$_{7}$,5.668,eV,,,,,,,
CaSnF$_{6}$,5.4068000000000005,eV,,,,,,,
CaPtO$_{3}$,1.2795999999999994,eV,,,,,,,
CeAl$_{3}$Pd$_{2}$,0.0,eV,,,,,,,
K(OsO$_{3}$)$_{2}$,0.0,eV,,,,,,,
PrRhO$_{3}$,0.6013000000000002,eV,,,,,,,
ThGeO$_{4}$,3.8957,eV,,,,,,,
U(SiPd)$_{2}$,0.0,eV,,,,,,,
Sm$_{2}$As$_{4}$O$_{9}$,3.3593,eV,,,,,,,
GdScGe,0,eV,,,,,,,
Sc(AlC)$_{3}$,0.028900000000000148,eV,,,,,,,
ErPt$_{2}$,0.0,eV,,,,,,,
Ca$_{11}$(CN$_{5}$)$_{2}$,0.7760000000000002,eV,,,,,,,
La$_{4}$Re$_{6}$O$_{19}$,0.0,eV,,,,,,,
Li$_{4}$TeO$_{5}$,0.0,eV,,,,,,,
Gd$_{2}$SO$_{2}$,2.0193999999999996,eV,,,,,,,
AgAsF$_{7}$,0.0,eV,,,,,,,
NdAgSn,0.0,eV,,,,,,,
Ga$_{2}$HgS$_{4}$,1.5714,eV,,,,,,,
ScPt$_{3}$,0.0,eV,,,,,,,
Pr(CoGe)$_{2}$,0.0,eV,,,,,,,
Zn$_{4}$B$_{6}$O$_{13}$,3.4078000000000004,eV,,,,,,,
NbAlNi$_{2}$,0.0,eV,,,,,,,
Pr(SiRh)$_{2}$,0.0,eV,,,,,,,
LaGaS$_{3}$,2.2220000000000004,eV,,,,,,,
CeAl$_{5}$Ni$_{2}$,0.0012999999999987466,eV,,,,,,,
Rb$_{2}$Sb$_{4}$S$_{7}$,1.2221000000000002,eV,,,,,,,
MgGeO$_{3}$,2.5261,eV,,,,,,,
ZrSiO$_{4}$,4.4661,eV,,,,,,,
Y(SiPd)$_{2}$,0.0,eV,,,,,,,
Na$_{2}$PdC$_{2}$,0.8829,eV,,,,,,,
NaZnP,0.9143000000000003,eV,,,,,,,
Li$_{7}$VN$_{4}$,2.84,eV,,,,,,,
CaCuO$_{2}$,0.0,eV,,,,,,,
HfNi$_{2}$Sn,0.0,eV,,,,,,,
Na$_{2}$ThF$_{6}$,6.4627,eV,,,,,,,
LaSiCu,0.0,eV,,,,,,,
Yb(MnSb)$_{2}$,0.0,eV,,,,,,,
Te$_{3}$As$_{2}$,0.4366999999999992,eV,,,,,,,
GaCuSe$_{2}$,0.042400000000000215,eV,,,,,,,
LaCuS$_{2}$,1.2324000000000002,eV,,,,,,,
Al$_{2}$ZnS$_{4}$,2.4939,eV,,,,,,,
CeZrO$_{4}$,1.7423000000000002,eV,,,,,,,
MnSbRh,0.0,eV,,,,,,,
Y$_{4}$Al$_{23}$Ni$_{6}$,0.0,eV,,,,,,,
ZrNi$_{3}$,0.0,eV,,,,,,,
Sr(GaO$_{2}$)$_{2}$,3.0697,eV,,,,,,,
Ni(RhSe$_{2}$)$_{2}$,0.0,eV,,,,,,,
CaSiO$_{3}$,3.5088,eV,,,,,,,
NdScGe,0.0,eV,,,,,,,
Li$_{2}$SeO$_{4}$,3.8324,eV,,,,,,,
HoGa$_{5}$Co,0.0,eV,,,,,,,
NiP$_{2}$,0.5324999999999998,eV,,,,,,,
Gd$_{2}$CuO$_{4}$,0.0,eV,,,,,,,
Sr(CuAs)$_{2}$,0,eV,,,,,,,
CaMgSn,0.0,eV,,,,,,,
Er(NiGe)$_{2}$,0.0,eV,,,,,,,
CaAl$_{4}$O$_{7}$,3.9982,eV,,,,,,,
MnP$_{4}$,0.4347000000000012,eV,,,,,,,
Cu(BO$_{2}$)$_{2}$,0.0,eV,,,,,,,
ErP$_{5}$O$_{14}$,5.2303,eV,,,,,,,
Ce$_{2}$TeO$_{2}$,0.0,eV,,,,,,,
GdTaO$_{4}$,3.2902,eV,,,,,,,
Tl$_{3}$SbSe$_{3}$,1.0148000000000001,eV,,,,,,,
CsNa$_{2}$Si$_{17}$,0.0,eV,,,,,,,
ZrGeSe,0.0,eV,,,,,,,
CuSe,0.0,eV,,,,,,,
Er(SiNi)$_{2}$,0.0,eV,,,,,,,
Ba(FeP)$_{2}$,0.0,eV,,,,,,,
NdCuO$_{2}$,2.4050999999999996,eV,,,,,,,
BaCeN$_{2}$,0.6481000000000003,eV,,,,,,,
NbPO$_{5}$,3.0812,eV,,,,,,,
Y(GeRh)$_{2}$,0,eV,,,,,,,
Ge$_{4}$Ir,0.0,eV,,,,,,,
HoAlO$_{3}$,5.8318,eV,,,,,,,
Hf$_{2}$SnC,0.0,eV,,,,,,,
ScSnPd$_{2}$,0.0,eV,,,,,,,
GaAgTe$_{2}$,0.19269999999999987,eV,,,,,,,
Os,0.0,eV,,,,,,,
BaCeO$_{3}$,2.2279,eV,,,,,,,
Y$_{2}$MgCu$_{2}$,0.0,eV,,,,,,,
Tm(SiCu)$_{2}$,0.0,eV,,,,,,,
Pr(SiRu)$_{2}$,0.0,eV,,,,,,,
Te$_{2}$SO$_{7}$,3.2845000000000004,eV,,,,,,,
Na$_{6}$Sn$_{2}$S$_{7}$,2.0846999999999998,eV,,,,,,,
Y(CoGe)$_{2}$,0.0,eV,,,,,,,
V$_{2}$NiS$_{4}$,0.0,eV,,,,,,,
La$_{3}$Se$_{4}$,0.0,eV,,,,,,,
Th(CuGe)$_{2}$,0.0,eV,,,,,,,
LiGa$_{2}$Rh,0.0,eV,,,,,,,
LaAsO$_{4}$,3.9896000000000003,eV,,,,,,,
TiN,0.0,eV,,,,,,,
Nd(GeRh)$_{2}$,0.0,eV,,,,,,,
MnAlNi$_{2}$,0.0,eV,,,,,,,
Pr(CuGe)$_{2}$,0.0,eV,,,,,,,
KBF$_{4}$,7.9327,eV,,,,,,,
Co$_{2}$B,0.0,eV,,,,,,,
TiAl$_{2}$O$_{5}$,2.9468,eV,,,,,,,
Al$_{2}$SiO$_{5}$,4.992799999999999,eV,,,,,,,
Yb(SiPt)$_{2}$,0,eV,,,,,,,
SNF,3.4515000000000002,eV,,,,,,,
ScCo$_{3}$B$_{2}$,0.0,eV,,,,,,,
Dy(FeSi)$_{2}$,0.0,eV,,,,,,,
GeMo$_{3}$,0.02970000000000006,eV,,,,,,,
Sr$_{2}$SnO$_{4}$,2.7047999999999996,eV,,,,,,,
LuGa$_{3}$,0.0,eV,,,,,,,
KCaF$_{3}$,6.1391,eV,,,,,,,
La$_{2}$MgNi$_{2}$,0.0,eV,,,,,,,
CdGeAs$_{2}$,0.03100000000000014,eV,,,,,,,
La(SiPd)$_{2}$,0.0,eV,,,,,,,
AlVCo$_{2}$,0.0,eV,,,,,,,
CaNbO$_{3}$,0.0,eV,,,,,,,
Ca(GaO$_{2}$)$_{2}$,2.9772,eV,,,,,,,
Li(PrGe$_{3}$)$_{2}$,0.0,eV,,,,,,,
Na$_{2}$HgO$_{2}$,1.6474000000000002,eV,,,,,,,
CoSbS,0.0,eV,,,,,,,
YSbPt,0.1120000000000001,eV,,,,,,,
MgSO$_{4}$,5.5304,eV,,,,,,,
TbCoSi$_{2}$,0.0,eV,,,,,,,
K$_{4}$Sn$_{3}$Se$_{8}$,1.4545000000000001,eV,,,,,,,
LuInCu$_{2}$,0.0,eV,,,,,,,
CeSF,0.0,eV,,,,,,,
La$_{2}$Zr$_{2}$O$_{7}$,3.7409,eV,,,,,,,
RbZnF$_{3}$,4.0807,eV,,,,,,,
Ti$_{2}$AlN,0.0,eV,,,,,,,
AlCuS$_{2}$,1.6937000000000006,eV,,,,,,,
SmBRh$_{3}$,0.0,eV,,,,,,,
Nd$_{7}$Al$_{7}$Co$_{6}$,0.0,eV,,,,,,,
SiB$_{2}$Mo$_{5}$,0.0,eV,,,,,,,
Dy(MnSi)$_{2}$,0.0,eV,,,,,,,
TlAsS$_{2}$,1.7379000000000002,eV,,,,,,,
CrNiAs,0.0,eV,,,,,,,
AgO,0.0,eV,,,,,,,
MnSnRh$_{2}$,0.0,eV,,,,,,,
Tb$_{2}$Sn$_{2}$O$_{7}$,2.7218,eV,,,,,,,
ScCrC$_{2}$,0.0,eV,,,,,,,
TbSi$_{2}$Ni,0.0,eV,,,,,,,
LiSbO$_{3}$,2.1379000000000006,eV,,,,,,,
ZrGeS,0.0,eV,,,,,,,
Nd(CoGe)$_{2}$,0,eV,,,,,,,
Tl(CuSe)$_{2}$,0.0,eV,,,,,,,
Li$_{3}$BN$_{2}$,3.3675999999999995,eV,,,,,,,
Na$_{2}$B$_{2}$Se$_{7}$,1.5493,eV,,,,,,,
Mg$_{3}$(BO$_{3}$)$_{2}$,5.143,eV,,,,,,,
Li$_{2}$SiO$_{3}$,5.0766,eV,,,,,,,
Cs$_{2}$BeF$_{4}$,6.8746,eV,,,,,,,
CuAgS,0.5629,eV,,,,,,,
UAlRh,0.0,eV,,,,,,,
YCo$_{3}$B$_{2}$,0.0,eV,,,,,,,
As$_{4}$S$_{5}$,1.9867,eV,,,,,,,
BaTiO$_{3}$,2.5086999999999997,eV,,,,,,,
Er(SiRu)$_{2}$,0.0,eV,,,,,,,
ZrP$_{2}$O$_{7}$,4.4725,eV,,,,,,,
Zr$_{2}$CS,0.0,eV,,,,,,,
MgSiO$_{3}$,4.6064,eV,,,,,,,
Ho$_{2}$Cu$_{2}$O$_{5}$,0.32600000000000007,eV,,,,,,,
ThS,0.0,eV,,,,,,,
TaSiAs,0.0,eV,,,,,,,
La$_{3}$Ru$_{3}$O$_{11}$,0.0,eV,,,,,,,
Tl$_{2}$SiF$_{6}$,4.976,eV,,,,,,,
ErPS$_{4}$,2.1434,eV,,,,,,,
CsGaS$_{2}$,3.0547000000000004,eV,,,,,,,
KPO$_{3}$,5.0422,eV,,,,,,,
CaTe$_{2}$O$_{5}$,3.3657999999999997,eV,,,,,,,
Li(NiO$_{2}$)$_{2}$,0.008399999999999963,eV,,,,,,,
LiNiPO$_{4}$F,0.0,eV,,,,,,,
LiTiPO$_{4}$,0.0,eV,,,,,,,
LiNi$_{3}$P$_{3}$O$_{11}$,3.7142999999999997,eV,,,,,,,
Li$_{3}$Ni$_{2}$(PO$_{4}$)$_{3}$,0.09810000000000008,eV,,,,,,,
FePO$_{4}$,2.8074000000000003,eV,,,,,,,
LiBi$_{2}$(PO$_{4}$)$_{3}$,0.0,eV,,,,,,,
Ni(PO$_{3}$)$_{3}$,0.44389999999999996,eV,,,,,,,
LiMn$_{6}$P$_{7}$O$_{24}$,3.6402,eV,,,,,,,
Mn$_{6}$P$_{7}$O$_{24}$,0.011499999999999844,eV,,,,,,,
Li$_{9}$Mn$_{3}$P$_{8}$O$_{29}$,1.2688000000000001,eV,,,,,,,
LiMo$_{8}$(P$_{2}$O$_{11}$)$_{4}$,0.394,eV,,,,,,,
Li$_{3}$Fe$_{2}$(PO$_{4}$)$_{3}$,2.527,eV,,,,,,,
Li$_{3}$Fe$_{3}$(PO$_{4}$)$_{4}$,2.1258,eV,,,,,,,
LiV(PO$_{3}$)$_{5}$,0.9129,eV,,,,,,,
LiSb(PO$_{3}$)$_{4}$,4.1221,eV,,,,,,,
Mo(PO$_{3}$)$_{5}$,0.1249,eV,,,,,,,
LiSn(PO$_{3}$)$_{3}$,4.0722,eV,,,,,,,
Mo$_{2}$P$_{3}$O$_{13}$,1.1577000000000002,eV,,,,,,,
LiCoP$_{2}$O$_{7}$,1.0822,eV,,,,,,,
Li$_{6}$Fe$_{3}$P$_{8}$O$_{29}$,0.1699,eV,,,,,,,
MoP$_{2}$O$_{7}$,1.6828,eV,,,,,,,
Li$_{3}$Ni$_{2}$(PO$_{4}$)$_{3}$,0.09640000000000004,eV,,,,,,,
Li$_{4}$Ni$_{5}$(P$_{3}$O$_{11}$)$_{2}$,3.458,eV,,,,,,,
Li$_{3}$Ni$_{3}$(PO$_{4}$)$_{4}$,0.09510000000000007,eV,,,,,,,
Ni$_{4}$P$_{7}$O$_{24}$,0.006899999999999962,eV,,,,,,,
LiMn$_{4}$(PO$_{4}$)$_{3}$,3.5385,eV,,,,,,,
Mn$_{4}$(PO$_{4}$)$_{3}$,0.0035000000000002807,eV,,,,,,,
Li$_{3}$Ni$_{2}$(PO$_{4}$)$_{3}$,0.0038000000000000256,eV,,,,,,,
Mo$_{4}$P$_{9}$O$_{32}$,0.0031999999999998696,eV,,,,,,,
LiCu$_{4}$(PO$_{4}$)$_{3}$,0.06309999999999993,eV,,,,,,,
Li$_{14}$Co$_{9}$(P$_{2}$O$_{7}$)$_{8}$,2.7367,eV,,,,,,,
LiCuPO$_{4}$,0.5025,eV,,,,,,,
CuPO$_{4}$,0.36129999999999995,eV,,,,,,,
Li$_{3}$Ni$_{2}$(PO$_{4}$)$_{3}$,0.0047999999999999154,eV,,,,,,,
MoP$_{2}$O$_{7}$,1.9726000000000001,eV,,,,,,,
LiCuPO$_{4}$,0.12750000000000017,eV,,,,,,,
Fe$_{4}$P$_{7}$O$_{24}$,2.3282,eV,,,,,,,
LiV$_{6}$P$_{7}$O$_{24}$,2.5743,eV,,,,,,,
Fe$_{3}$(P$_{2}$O$_{7}$)$_{2}$,0.6099000000000001,eV,,,,,,,
LiSb(PO$_{3}$)$_{4}$,4.1842999999999995,eV,,,,,,,
LiSb(PO$_{3}$)$_{4}$,4.6559,eV,,,,,,,
LiBi(PO$_{3}$)$_{4}$,5.117299999999999,eV,,,,,,,
LiCr$_{4}$(PO$_{4}$)$_{3}$,2.6027000000000005,eV,,,,,,,
Cr$_{4}$(PO$_{4}$)$_{3}$,0.6124999999999998,eV,,,,,,,
LiCr$_{6}$P$_{7}$O$_{24}$,2.3984000000000005,eV,,,,,,,
Cr$_{6}$P$_{7}$O$_{24}$,0.0956999999999999,eV,,,,,,,
Li$_{9}$Cr$_{3}$P$_{8}$O$_{29}$,3.0718,eV,,,,,,,
Li$_{6}$Cr$_{3}$P$_{8}$O$_{29}$,0.064,eV,,,,,,,
Li$_{9}$V$_{3}$P$_{8}$O$_{29}$,2.1990999999999996,eV,,,,,,,
LiNi$_{6}$P$_{7}$O$_{24}$,3.6824999999999997,eV,,,,,,,
Ni$_{6}$P$_{7}$O$_{24}$,3.5903,eV,,,,,,,
Li$_{5}$Ni$_{9}$(P$_{2}$O$_{7}$)$_{8}$,0.0039000000000000146,eV,,,,,,,
Li$_{6}$Co$_{5}$(P$_{2}$O$_{7}$)$_{4}$,2.2221,eV,,,,,,,
MnPO$_{4}$,0.03269999999999995,eV,,,,,,,
Li$_{7}$Mo$_{4}$P$_{9}$O$_{32}$,4.096299999999999,eV,,,,,,,
Li$_{3}$Fe$_{2}$(PO$_{4}$)$_{3}$,2.532,eV,,,,,,,
Li$_{6}$Mn$_{5}$(P$_{2}$O$_{7}$)$_{4}$,3.8446,eV,,,,,,,
Li$_{7}$Cr$_{4}$P$_{9}$O$_{32}$,2.8915,eV,,,,,,,
LiMn$_{4}$(PO$_{4}$)$_{3}$,3.4406999999999996,eV,,,,,,,
Li$_{7}$V$_{4}$P$_{9}$O$_{32}$,2.2177,eV,,,,,,,
Cr$_{4}$P$_{9}$O$_{32}$,0.02339999999999999,eV,,,,,,,
H$_{7}$NO$_{6}$,3.5739,eV,,,,,,,
Nb$_{3}$As,0.0,eV,,,,,,,
LiH$_{5}$S(NO$_{2}$)$_{2}$,5.4792,eV,,,,,,,
Ti$_{3}$PbO$_{7}$,1.9724,eV,,,,,,,
Cr$_{2}$Ag$_{2}$O$_{7}$,1.3931,eV,,,,,,,
U$_{4}$Re$_{7}$Si$_{6}$,0.0,eV,,,,,,,
Be$_{2}$TlF$_{5}$,5.093,eV,,,,,,,
Cs$_{3}$MnCl$_{5}$,2.8875,eV,,,,,,,
BaTi$_{6}$O$_{13}$,2.6401000000000003,eV,,,,,,,
Ag$_{2}$WO$_{4}$,2.0499,eV,,,,,,,
Bi$_{3}$Ru$_{3}$O$_{11}$,0.0,eV,,,,,,,
TbHO$_{2}$,4.7376000000000005,eV,,,,,,,
Cu$_{2}$PO$_{4}$F,0.0,eV,,,,,,,
AlInS$_{3}$,2.3613999999999997,eV,,,,,,,
Ho$_{6}$Fe$_{16}$O,0.0,eV,,,,,,,
K$_{2}$CdPb,0.0,eV,,,,,,,
SnGeS$_{3}$,1.6350000000000002,eV,,,,,,,
Ta$_{3}$P,0.0,eV,,,,,,,
RbIn(MoO$_{4}$)$_{2}$,3.9647,eV,,,,,,,
MgV$_{2}$O$_{6}$,2.7685999999999997,eV,,,,,,,
Eu$_{3}$RbF$_{10}$,0.0,eV,,,,,,,
CuH$_{20}$S$_{2}$(NO$_{7}$)$_{2}$,0.5273,eV,,,,,,,
As$_{2}$W$_{2}$O$_{11}$,3.3384,eV,,,,,,,
V$_{4}$O$_{9}$,0.40510000000000024,eV,,,,,,,
InHO$_{2}$,1.7764000000000002,eV,,,,,,,
Cu$_{4}$SnS$_{4}$,0.00140000000000029,eV,,,,,,,
CaLu$_{2}$O$_{4}$,3.9028,eV,,,,,,,
Na$_{11}$U$_{5}$O$_{16}$,0.0,eV,,,,,,,
SnPbO$_{3}$,0.0,eV,,,,,,,
Ba$_{5}$Ta$_{4}$O$_{15}$,3.0865,eV,,,,,,,
KU$_{2}$F$_{9}$,0.17140000000000022,eV,,,,,,,
Pr$_{2}$W$_{2}$O$_{9}$,3.4973,eV,,,,,,,
Y$_{2}$ReB$_{6}$,0.0,eV,,,,,,,
BaFe$_{2}$Se$_{3}$,0.0,eV,,,,,,,
Si(PbS$_{2}$)$_{2}$,2.0436999999999994,eV,,,,,,,
CaFe$_{5}$O$_{7}$,1.2311999999999999,eV,,,,,,,
Mn$_{3}$(CuO$_{4}$)$_{2}$,0.0,eV,,,,,,,
K$_{3}$FeO$_{3}$,2.0103,eV,,,,,,,
Cr$_{2}$CuO$_{4}$,0.0,eV,,,,,,,
Li$_{7}$IN$_{2}$,0.0,eV,,,,,,,
MoOF$_{4}$,4.1739,eV,,,,,,,
OsOF$_{5}$,0.7822999999999998,eV,,,,,,,
Ag$_{6}$Mo$_{10}$O$_{33}$,2.0999,eV,,,,,,,
VCuO$_{3}$,0.6943999999999999,eV,,,,,,,
Fe$_{9}$Cu$_{9}$S$_{16}$,0.0,eV,,,,,,,
Cu$_{2}$H$_{2}$CO$_{5}$,0.0,eV,,,,,,,
Ca$_{2}$Si$_{3}$PbO$_{9}$,4.371,eV,,,,,,,
Pb$_{2}$CCl$_{2}$O$_{3}$,3.2252,eV,,,,,,,
ZrBr,0.0,eV,,,,,,,
Rb$_{2}$PbO$_{2}$,1.8864000000000003,eV,,,,,,,
BeSO$_{4}$,6.9272,eV,,,,,,,
NaH$_{4}$ClO$_{2}$,4.923,eV,,,,,,,
Cs$_{2}$ZnO$_{2}$,1.7128999999999999,eV,,,,,,,
Na$_{2}$SiH$_{16}$O$_{11}$,4.4711,eV,,,,,,,
YInO$_{3}$,2.0516999999999994,eV,,,,,,,
Ce$_{3}$(Si$_{4}$Ni)$_{2}$,0.0,eV,,,,,,,
Sm$_{3}$(GaNi$_{3}$)$_{2}$,0.030899999999999928,eV,,,,,,,
Ce$_{2}$Co$_{7}$B$_{3}$,0.0,eV,,,,,,,
Ti$_{3}$Co$_{5}$B$_{2}$,0.0,eV,,,,,,,
K$_{2}$Cr$_{3}$O$_{10}$,2.0045,eV,,,,,,,
Fe$_{2}$W$_{2}$C,0.010800000000000587,eV,,,,,,,
MgMo$_{2}$O$_{7}$,3.6742999999999997,eV,,,,,,,
Eu$_{3}$Sn$_{2}$S$_{7}$,0.014100000000000001,eV,,,,,,,
V$_{3}$SiNi$_{2}$,0.0,eV,,,,,,,
Er$_{4}$NiB$_{13}$,0.0,eV,,,,,,,
InTeCl,1.6597999999999997,eV,,,,,,,
U$_{3}$Ni$_{3}$Sb$_{4}$,0.0,eV,,,,,,,
KCeF$_{4}$,0.0,eV,,,,,,,
In$_{5}$(BiS$_{4}$)$_{3}$,1.1899000000000006,eV,,,,,,,
La$_{3}$SiCuS$_{7}$,1.7776999999999994,eV,,,,,,,
Eu$_{2}$SiO$_{4}$,0.37879999999999914,eV,,,,,,,
Hf$_{2}$P,0.0,eV,,,,,,,
SbClO,3.0971,eV,,,,,,,
P$_{2}$W$_{3}$O$_{13}$,0.8175999999999999,eV,,,,,,,
RbIn(WO$_{4}$)$_{2}$,4.6388,eV,,,,,,,
KBiF$_{6}$,2.7061,eV,,,,,,,
LiCa$_{2}$Ge$_{3}$,0.0,eV,,,,,,,
EuBa$_{2}$ReO$_{6}$,0.0022999999999999687,eV,,,,,,,
AlTl$_{2}$F$_{5}$,4.3609,eV,,,,,,,
SrPbF$_{6}$,0.0048000000000000265,eV,,,,,,,
CoSeO$_{4}$,1.6888999999999998,eV,,,,,,,
USnTe,0.0,eV,,,,,,,
Mn$_{2}$O$_{2}$F$_{9}$,0.6117000000000004,eV,,,,,,,
LiMnP,0.0,eV,,,,,,,
MnSO$_{3}$,4.0952,eV,,,,,,,
CsTiF$_{4}$,0.0,eV,,,,,,,
CsCoCl$_{3}$,0.0,eV,,,,,,,
CoCuO$_{2}$,0.0862999999999996,eV,,,,,,,
BaTiO$_{3}$,0.0,eV,,,,,,,
Ba$_{2}$NiWO$_{6}$,3.3409,eV,,,,,,,
EuBrO,0.0,eV,,,,,,,
Cs$_{2}$PdF$_{6}$,2.3064999999999998,eV,,,,,,,
EuF$_{2}$,0.0,eV,,,,,,,
Ti$_{3}$Fe$_{3}$O,0.0,eV,,,,,,,
Eu(Al$_{4}$Fe)$_{2}$,0.042599999999999305,eV,,,,,,,
Hf(FeSi)$_{2}$,0.0,eV,,,,,,,
Pr$_{8}$Ga$_{3}$Co,0.0,eV,,,,,,,
Cu$_{5}$As$_{2}$,0.0,eV,,,,,,,
V$_{2}$Cu$_{3}$O$_{8}$,0.0049000000000001265,eV,,,,,,,
P$_{3}$Pb$_{5}$ClO$_{12}$,3.3891000000000004,eV,,,,,,,
AsHPbO$_{4}$,2.9932000000000007,eV,,,,,,,
Fe$_{3}$BO$_{5}$,0.9327000000000001,eV,,,,,,,
Cu$_{12}$As$_{4}$S$_{13}$,0.0,eV,,,,,,,
Li$_{10}$Pb$_{3}$,0.0,eV,,,,,,,
CuN$_{3}$,1.9548,eV,,,,,,,
N$_{2}$O$_{5}$,0.6626,eV,,,,,,,
LaCo$_{8}$P$_{5}$,0.0,eV,,,,,,,
Y$_{3}$(SiRh)$_{2}$,0.0,eV,,,,,,,
La$_{6}$P$_{17}$Pd$_{6}$,0.0,eV,,,,,,,
Ce$_{6}$P$_{17}$Pd$_{6}$,0.0,eV,,,,,,,
Ag$_{2}$Mo$_{2}$O$_{7}$,1.9011000000000002,eV,,,,,,,
NpI$_{3}$,3.9999999999995595E-4,eV,,,,,,,
Np$_{2}$S$_{3}$,0.0,eV,,,,,,,
NpF$_{4}$,0.0,eV,,,,,,,
LiYSn,0.0,eV,,,,,,,
P(WO$_{4}$)$_{2}$,1.1591000000000002,eV,,,,,,,
Ca$_{4}$Fe$_{9}$O$_{17}$,0.07260000000000044,eV,,,,,,,
LiGaTe$_{2}$,1.5885000000000002,eV,,,,,,,
ErHO$_{2}$,3.9820999999999995,eV,,,,,,,
MgH$_{12}$S$_{2}$O$_{9}$,4.3727,eV,,,,,,,
Cs(Zr$_{3}$I$_{7}$)$_{2}$,0.0,eV,,,,,,,
K$_{2}$Li$_{14}$Pb$_{3}$O$_{14}$,1.9157000000000002,eV,,,,,,,
MgP$_{2}$H$_{20}$C$_{4}$(N$_{2}$O$_{3}$)$_{4}$,5.1417,eV,,,,,,,
P$_{2}$W$_{5}$O$_{19}$,0.0,eV,,,,,,,
Rb$_{2}$Li$_{14}$Pb$_{3}$O$_{14}$,2.0836,eV,,,,,,,
Rb$_{2}$Pb$_{4}$O$_{7}$,0.9863,eV,,,,,,,
Hf$_{3}$P,0.0,eV,,,,,,,
Sb$_{2}$Pb$_{2}$S$_{5}$,1.0418000000000003,eV,,,,,,,
Re$_{5}$(NiAs$_{6}$)$_{2}$,0.0,eV,,,,,,,
MoPO$_{5}$,2.4078,eV,,,,,,,
VCl$_{3}$O,2.8945,eV,,,,,,,
TlFeBr$_{3}$,0.0,eV,,,,,,,
SeCl,2.1687000000000003,eV,,,,,,,
S$_{2}$N$_{2}$O,1.9159999999999997,eV,,,,,,,
Ga$_{10}$GePb$_{3}$O$_{20}$,3.0284,eV,,,,,,,
NdH$_{12}$(NO$_{5}$)$_{3}$,0.0,eV,,,,,,,
S$_{4}$N$_{5}$F,2.4816,eV,,,,,,,
La$_{3}$ReO$_{8}$,1.9040999999999997,eV,,,,,,,
NbNiAs$_{2}$,0.0,eV,,,,,,,
YMn$_{4}$(CuO$_{4}$)$_{3}$,0.0,eV,,,,,,,
CsPS$_{3}$,1.9062000000000001,eV,,,,,,,
K$_{4}$Rb$_{2}$Co$_{2}$O$_{5}$,1.0943000000000003,eV,,,,,,,
Cs$_{2}$Li$_{2}$SiO$_{4}$,3.8531000000000004,eV,,,,,,,
Rb$_{2}$Na$_{3}$InO$_{4}$,2.1593,eV,,,,,,,
Cs$_{2}$Na$_{3}$InO$_{4}$,2.0661,eV,,,,,,,
U$_{2}$Ni$_{12}$P$_{7}$,0.0038999999999997925,eV,,,,,,,
CoCu$_{2}$O$_{3}$,0.014499999999999957,eV,,,,,,,
Y$_{4}$CoB$_{13}$,0.0,eV,,,,,,,
Ti$_{4}$Cd(CuO$_{4}$)$_{3}$,0.0,eV,,,,,,,
YCu(WO$_{4}$)$_{2}$,1.4609000000000005,eV,,,,,,,
Sr$_{3}$CuIrO$_{6}$,0.0,eV,,,,,,,
V$_{2}$S$_{2}$O$_{11}$,2.3422,eV,,,,,,,
SrV$_{2}$CuO$_{7}$,0.6648999999999998,eV,,,,,,,
YB$_{7}$Mo$_{3}$,0.0,eV,,,,,,,
Hg$_{19}$(As$_{5}$Br$_{9}$)$_{2}$,1.0826,eV,,,,,,,
HoB$_{7}$Mo$_{3}$,0.0,eV,,,,,,,
VBiO$_{4}$,2.2989999999999995,eV,,,,,,,
CaH$_{12}$CO$_{9}$,4.8957999999999995,eV,,,,,,,
CaSb$_{10}$(S$_{3}$O$_{5}$)$_{2}$,1.7464999999999993,eV,,,,,,,