formula,Property Band Gap,Property Band Gap units,Property Band gap,Property Band gap units,Temperature (Property Band gap),Temperature (Property Band gap) units,Property Color,Temperature (Property Color),Temperature (Property Color) units
LiMo$_{3}$P$_{3}$O$_{13}$,1.1762000000000001,eV,,,,,,,
LiFe$_{3}$P$_{3}$O$_{13}$,0.0,eV,,,,,,,
Sc$_{3}$SnB,0.0,eV,,,,,,,
TiSCl,0.0,eV,,,,,,,
LiFe$_{2}$P$_{2}$O$_{9}$,0.008000000000000007,eV,,,,,,,
Na$_{2}$CoP$_{2}$O$_{7}$,3.0677000000000003,eV,,,,,,,
LiCo$_{3}$P$_{3}$O$_{13}$,0.0,eV,,,,,,,
Li$_{3}$V$_{2}$(GeO$_{4}$)$_{3}$,0.0,eV,,,,,,,
LiMn$_{3}$P$_{3}$O$_{13}$,0.0,eV,,,,,,,
LiCr$_{2}$P$_{2}$O$_{9}$,0.6364999999999998,eV,,,,,,,
TiSF,0.0,eV,,,,,,,
LiCo$_{2}$P$_{2}$O$_{9}$,0.047800000000000065,eV,,,,,,,
LiNi$_{2}$P$_{2}$O$_{9}$,0.0,eV,,,,,,,
ZrMn$_{2}$,0.0,eV,,,,,,,
Sc$_{3}$TlB,0.0,eV,,,,,,,
Mn$_{2}$SiRh,0.0,eV,,,,,,,
P,0.8832,eV,,,,,,,
SmB$_{2}$,0.0,eV,,,,,,,
ZrB,0.0,eV,,,,,,,
CsPbBr$_{3}$,1.8178,eV,,,,,,,
Ta$_{3}$B$_{4}$,0.0,eV,,,,,,,
Sn$_{5}$(S$_{2}$Cl)$_{2}$,0.5160999999999998,eV,,,,,,,
C$_{3}$N,0.0,eV,,,,,,,
HfZn,0.0,eV,,,,,,,
Zr$_{3}$ZnN,0.0,eV,,,,,,,
Ti$_{2}$ZnN,0.0,eV,,,,,,,
Ti$_{2}$Zn,0.0,eV,,,,,,,
TiZn,0.0,eV,,,,,,,
Hf$_{2}$Zn,0.0,eV,,,,,,,
ZrZnN$_{2}$,1.9900000000000002,eV,,,,,,,
HfZnN$_{2}$,2.3179,eV,,,,,,,
Hf$_{3}$ZnN,0.0,eV,,,,,,,
Ti$_{3}$ZnN,0.0,eV,,,,,,,
IrO$_{2}$,0.0,eV,,,,,,,
CrN$_{2}$,0.0,eV,,,,,,,
Zr$_{2}$N,0.0,eV,,,,,,,
TiB,0.0,eV,,,,,,,
Cr$_{3}$N$_{2}$,0.0,eV,,,,,,,
CrN$_{2}$,0,eV,,,,,,,
Cr$_{3}$N$_{4}$,0.0,eV,,,,,,,
Cr$_{3}$N$_{4}$,0.0022999999999999687,eV,,,,,,,
B$_{2}$W,0.0,eV,,,,,,,
Cr$_{3}$N$_{2}$,0,eV,,,,,,,
Cr$_{3}$N$_{4}$,0.03300000000000036,eV,,,,,,,
Li$_{2}$YAl,0.0,eV,,,,,,,
YbB$_{2}$,0.0,eV,,,,,,,
Cr$_{3}$N$_{4}$,0,eV,,,,,,,
CrN$_{2}$,0.032200000000000006,eV,,,,,,,
NaLi$_{2}$As,0.0,eV,,,,,,,
CrN$_{2}$,0.15909999999999996,eV,,,,,,,
CrN$_{2}$,0.21100000000000002,eV,,,,,,,
NaLi$_{2}$Sn,0.0,eV,,,,,,,
CrN$_{2}$,0.005300000000000082,eV,,,,,,,
La(SiIr)$_{2}$,0.0,eV,,,,,,,
MnSbIr,0.0,eV,,,,,,,
P$_{2}$Ir,0.6311,eV,,,,,,,
CrN$_{2}$,0.27060000000000006,eV,,,,,,,
K,0.0,eV,,,,,,,
CrN$_{2}$,0.2319,eV,,,,,,,
AlCo$_{2}$Si,0.0,eV,,,,,,,
LiMg$_{2}$Al,0.0,eV,,,,,,,
K$_{3}$Sb,0.6773,eV,,,,,,,
PuGe$_{2}$,0,eV,,,,,,,
CrN$_{2}$,0.20210000000000017,eV,,,,,,,
CrN$_{2}$,0.035800000000000054,eV,,,,,,,
CrN$_{2}$,0.1766,eV,,,,,,,
CrN$_{2}$,0.2990999999999999,eV,,,,,,,
CrN$_{2}$,0.0858000000000001,eV,,,,,,,
Cr$_{3}$N$_{4}$,0.05049999999999999,eV,,,,,,,
CrN$_{2}$,0.3933,eV,,,,,,,
CrN$_{2}$,0.3777000000000008,eV,,,,,,,
CrN$_{2}$,0.0046999999999999265,eV,,,,,,,
Re$_{2}$O$_{7}$,2.6752000000000002,eV,,,,,,,
KZnSb,0.3487999999999998,eV,,,,,,,
HfZn$_{16}$,0.0,eV,,,,,,,
Hf$_{6}$Zn$_{6}$N,0.0,eV,,,,,,,
TiZnN$_{2}$,2.342,eV,,,,,,,
ZrZn$_{16}$,0.0,eV,,,,,,,
MgSiAs$_{2}$,1.3031999999999995,eV,,,,,,,
La$_{3}$Si$_{2}$,0.0,eV,,,,,,,
MgGeAs$_{2}$,0.5541,eV,,,,,,,
Sn$_{3}$H$_{6}$CNO$_{7}$,0.9063000000000001,eV,,,,,,,
Sn$_{3}$H$_{8}$C$_{2}$NO$_{7}$,0.07650000000000001,eV,,,,,,,
Bi$_{2}$H$_{18}$C$_{3}$(IN)$_{9}$,2.8455999999999997,eV,,,,,,,
NaAlTe$_{2}$,1.2847,eV,,,,,,,
NaGaTe$_{2}$,0.2022999999999997,eV,,,,,,,
KAlTe$_{2}$,1.7037,eV,,,,,,,
NaAlSe$_{2}$,2.1495,eV,,,,,,,
Na$_{3}$SbS$_{4}$,1.9093999999999998,eV,,,,,,,
HfZnO$_{3}$,0.0,eV,,,,,,,
MgSnO$_{3}$,0.8352999999999993,eV,,,,,,,
BaSiO$_{3}$,0.9385000000000003,eV,,,,,,,
BaGeO$_{3}$,0.0,eV,,,,,,,
HfMgO$_{3}$,0.7745000000000002,eV,,,,,,,
MgIrO$_{3}$,0.0,eV,,,,,,,
MgGeO$_{3}$,1.0860999999999992,eV,,,,,,,
CdIrO$_{3}$,0.0,eV,,,,,,,
MgRuO$_{3}$,0.0,eV,,,,,,,
MgTiO$_{3}$,1.5962,eV,,,,,,,
HgIrO$_{3}$,0.0,eV,,,,,,,
CaRhO$_{3}$,0.0,eV,,,,,,,
CaRuO$_{3}$,0.0,eV,,,,,,,
ZnOsO$_{3}$,0.0,eV,,,,,,,
SnHgO$_{3}$,0.0,eV,,,,,,,
HgOsO$_{3}$,0.0,eV,,,,,,,
HfHgO$_{3}$,0.0,eV,,,,,,,
TiHgO$_{3}$,0.0,eV,,,,,,,
MgOsO$_{3}$,0.0,eV,,,,,,,
ZrCdO$_{3}$,0.0,eV,,,,,,,
TiCdO$_{3}$,0.0,eV,,,,,,,
SrIrO$_{3}$,0.0,eV,,,,,,,
CdRuO$_{3}$,0.0,eV,,,,,,,
BaRhO$_{3}$,0.0,eV,,,,,,,
HgRuO$_{3}$,0.0,eV,,,,,,,
BaMnO$_{3}$,0.0,eV,,,,,,,
CaVO$_{3}$,0.0,eV,,,,,,,
MnCdO$_{3}$,0.0,eV,,,,,,,
ZrHgO$_{3}$,0.0,eV,,,,,,,
CaIrO$_{3}$,0.0,eV,,,,,,,
CaHfO$_{3}$,3.6643999999999997,eV,,,,,,,
SiHgO$_{3}$,0.0,eV,,,,,,,
CdRhO$_{3}$,0.0,eV,,,,,,,
ZnSiO$_{3}$,0.0,eV,,,,,,,
HgRhO$_{3}$,0.0,eV,,,,,,,
CdSiO$_{3}$,0.6502999999999997,eV,,,,,,,
ZnRhO$_{3}$,0.0,eV,,,,,,,
CdSnO$_{3}$,0.0,eV,,,,,,,
CdOsO$_{3}$,0.0,eV,,,,,,,
ZrZnO$_{3}$,0.0,eV,,,,,,,
CaGeO$_{3}$,0.5053999999999998,eV,,,,,,,
MgVO$_{3}$,0.0,eV,,,,,,,
CaOsO$_{3}$,0.0,eV,,,,,,,
ZnSnO$_{3}$,0.0,eV,,,,,,,
CdGeO$_{3}$,0.10599999999999987,eV,,,,,,,
VCdO$_{3}$,0.0,eV,,,,,,,
ZnIrO$_{3}$,0.0,eV,,,,,,,
TiZnO$_{3}$,0.0,eV,,,,,,,
MgSiO$_{3}$,2.557100000000001,eV,,,,,,,
MgRhO$_{3}$,0.0,eV,,,,,,,
ZnGeO$_{3}$,0.0,eV,,,,,,,
VZnO$_{3}$,0.0,eV,,,,,,,
MnZnO$_{3}$,0.0,eV,,,,,,,
VHgO$_{3}$,0.0,eV,,,,,,,
SrGeO$_{3}$,0.0,eV,,,,,,,
Zr$_{3}$O,0.0,eV,,,,,,,
MgZrO$_{3}$,0.6316999999999999,eV,,,,,,,
Na,0.0,eV,,,,,,,
Li,0.0,eV,,,,,,,
SrSiO$_{3}$,2.3766,eV,,,,,,,
SrRhO$_{3}$,0.0,eV,,,,,,,
HfCdO$_{3}$,0.0,eV,,,,,,,
HgGeO$_{3}$,0.0,eV,,,,,,,
BaVO$_{3}$,0.0,eV,,,,,,,
SrMnO$_{3}$,0.0,eV,,,,,,,
CaMnO$_{3}$,0.0,eV,,,,,,,
KCdF$_{3}$,3.1006,eV,,,,,,,
TmAu,0.0,eV,,,,,,,
LuTlTe$_{2}$,0.6444999999999999,eV,,,,,,,
MgNiH$_{2}$,0.0,eV,,,,,,,
MgTe,0.8062999999999994,eV,,,,,,,
MgSiN$_{2}$,4.158800000000001,eV,,,,,,,
Mn$_{2}$CoAs,0.0,eV,,,,,,,
MgSiP$_{2}$,0.0,eV,,,,,,,
VCo$_{3}$,0.031799999999999606,eV,,,,,,,
VH,0,eV,,,,,,,
VPt,0,eV,,,,,,,
VN,0,eV,,,,,,,
YN,0.2062999999999997,eV,,,,,,,
ZnCdSe$_{2}$,1.5060000000000002,eV,,,,,,,
ZnO,0.4406,eV,,,,,,,
ZrCd,0,eV,,,,,,,
ZrIr,0.0,eV,,,,,,,
ZrOs$_{3}$,0,eV,,,,,,,
ZrPd$_{3}$,0.09359999999999946,eV,,,,,,,
ZrRu$_{3}$,0.16239999999999988,eV,,,,,,,
ZrRh,0.0,eV,,,,,,,
Ca(BeP)$_{2}$,0.7366000000000001,eV,,,,,,,
Ca(BH)$_{2}$,0,eV,,,,,,,
Be$_{3}$N$_{2}$,4.3014,eV,,,,,,,
Bi$_{2}$O$_{3}$,0.4854000000000003,eV,,,,,,,
Bi$_{2}$O$_{3}$,1.1216,eV,,,,,,,
CdCo$_{3}$N,0.08480000000000043,eV,,,,,,,
CdNi$_{3}$N,0.12280000000000069,eV,,,,,,,
CsBeF$_{3}$,5.7485,eV,,,,,,,
CuNi$_{3}$N,0.1003999999999996,eV,,,,,,,
Dy$_{3}$AlN,0.16790000000000038,eV,,,,,,,
Er$_{3}$AlN,0.16880000000000006,eV,,,,,,,
Eu(ZnAs)$_{2}$,0,eV,,,,,,,
GaPt$_{3}$C,0.015799999999999592,eV,,,,,,,
Eu$_{2}$O$_{3}$,0,eV,,,,,,,
In$_{2}$Se$_{3}$,0.10890000000000022,eV,,,,,,,
GePbO$_{3}$,0.6616,eV,,,,,,,
Hf$_{2}$SN$_{2}$,1.0819999999999999,eV,,,,,,,
Ho$_{3}$AlN,0.0,eV,,,,,,,
HfBRh$_{3}$,0.0,eV,,,,,,,
In$_{2}$Au$_{3}$,0.0,eV,,,,,,,
KMgH$_{3}$,0.0,eV,,,,,,,
LaPd$_{3}$C,0.0,eV,,,,,,,
LaPt$_{3}$C,0.0,eV,,,,,,,
BaRuO$_{3}$,0.0,eV,,,,,,,
LiCaF$_{3}$,6.7418,eV,,,,,,,
Lu$_{3}$AlN,0.1253000000000002,eV,,,,,,,
Mg(BeP)$_{2}$,0.851,eV,,,,,,,
MgNiH$_{3}$,0,eV,,,,,,,
Mg$_{2}$ZnAs$_{2}$,0,eV,,,,,,,
ScBPd$_{3}$,0,eV,,,,,,,
Ni$_{3}$SnN,0,eV,,,,,,,
LaSb,0.0,eV,,,,,,,
LiMgP,0.0,eV,,,,,,,
LiMgSbPd,0.0,eV,,,,,,,
Hg,0.049799999999999844,eV,,,,,,,
TiMo$_{3}$,0.0,eV,,,,,,,
TiAg,0.0,eV,,,,,,,
Tc$_{3}$N,0.0,eV,,,,,,,
SrCaO$_{2}$,3.3236,eV,,,,,,,
Li$_{2}$SbPd,0.0,eV,,,,,,,
Li$_{2}$MgSi,0.08880000000000043,eV,,,,,,,
TiFeCoGe,0.0,eV,,,,,,,
Ti$_{2}$InNi,0.0,eV,,,,,,,
Ti$_{2}$MnGe,0.0,eV,,,,,,,
Ti$_{2}$AlNi,0.0,eV,,,,,,,
Sc$_{2}$MnSn,0.0,eV,,,,,,,
PbS,0.008399999999999963,eV,,,,,,,
NiAgSe$_{2}$,0.0,eV,,,,,,,
NbCo$_{3}$,0.0,eV,,,,,,,
NbInS$_{2}$,0.0,eV,,,,,,,
Mn$_{3}$Sn,0.0,eV,,,,,,,
MnFeCoGe,0.0,eV,,,,,,,
LuAgO$_{2}$,2.1527000000000003,eV,,,,,,,
LiAg,0.0,eV,,,,,,,
TiS,0.0,eV,,,,,,,
CuPd,0.0,eV,,,,,,,
Sr$_{2}$SO,2.1860999999999997,eV,,,,,,,
KInO$_{2}$,2.0788999999999995,eV,,,,,,,
SrCdO$_{2}$,0.014000000000000012,eV,,,,,,,
AgRhO$_{2}$,0.7869999999999999,eV,,,,,,,
MgSe,2.5854999999999997,eV,,,,,,,
Ti$_{2}$MnIn,0.08050000000000068,eV,,,,,,,
UBi,0.0,eV,,,,,,,
Ti$_{2}$InCo,0.0,eV,,,,,,,
Rb,0.0,eV,,,,,,,
MnGaFe$_{2}$,0.02799999999999958,eV,,,,,,,
LaSn,0.0,eV,,,,,,,
LaNiC$_{2}$,0.07939999999999969,eV,,,,,,,
LaN,1.7318999999999996,eV,,,,,,,
CrC,0.0,eV,,,,,,,
KTiS$_{2}$,0.0,eV,,,,,,,
HoFeC$_{2}$,0,eV,,,,,,,
InCu,0.0,eV,,,,,,,
HfPt$_{3}$,0.0,eV,,,,,,,
HfNi,0.0,eV,,,,,,,
HfBe,0.0,eV,,,,,,,
GaSb,0.005699999999999594,eV,,,,,,,
FeH$_{3}$,0.0,eV,,,,,,,
FeSnRh$_{2}$,0.0,eV,,,,,,,
ErH$_{3}$,0.0,eV,,,,,,,
ErFeC$_{2}$,0,eV,,,,,,,
DyFeC$_{2}$,0,eV,,,,,,,
CrSnRh$_{2}$,0.0,eV,,,,,,,
CrFe$_{3}$,0.0,eV,,,,,,,
CrFe$_{2}$Si,0.0,eV,,,,,,,
Ti$_{2}$InFe,0.0,eV,,,,,,,
MnFe$_{2}$Ge,0.0,eV,,,,,,,
HoGa,0.0,eV,,,,,,,
GaFeNi$_{2}$,0.0,eV,,,,,,,
FeSe,0.0,eV,,,,,,,
Ga$_{2}$BiAs,0.0,eV,,,,,,,
ErGa,0.0,eV,,,,,,,
CrGaP$_{2}$,0.0,eV,,,,,,,
CrCo$_{2}$Bi,0.0,eV,,,,,,,
CrCo$_{2}$Sb,0.0,eV,,,,,,,
CrCdTe$_{2}$,0.0,eV,,,,,,,
CrAgTe$_{2}$,0.0,eV,,,,,,,
CoSnRh$_{2}$,0.0,eV,,,,,,,
CePd,0.0,eV,,,,,,,
CeAu,0.0,eV,,,,,,,
C,0.0,eV,,,,,,,
CaZnSe$_{2}$,1.5116,eV,,,,,,,
CaGaSiH,0.26280000000000037,eV,,,,,,,
CaGaSnH,0.21010000000000062,eV,,,,,,,
CaGaGeH,0.5002,eV,,,,,,,
BaGaSnH,0.054300000000000015,eV,,,,,,,
BaGaGeH,0.03980000000000006,eV,,,,,,,
Ba$_{2}$NF,1.0825999999999998,eV,,,,,,,
BaCaO$_{2}$,2.1353,eV,,,,,,,
Ba$_{2}$BrN,1.1383999999999999,eV,,,,,,,
Ba$_{2}$NCl,1.0962,eV,,,,,,,
LiSiNi$_{2}$,0.0,eV,,,,,,,
AlSb,0.9143999999999997,eV,,,,,,,
AlCo$_{3}$,0.0,eV,,,,,,,
ZrPd$_{2}$,0.0,eV,,,,,,,
ZrAu$_{2}$,0.0,eV,,,,,,,
Zr$_{2}$Cd,0.0,eV,,,,,,,
Zr$_{2}$Zn,0.0,eV,,,,,,,
YbBiPt,0.0,eV,,,,,,,
ZrTe$_{2}$,0.0,eV,,,,,,,
YSb$_{2}$,0.0,eV,,,,,,,
YAu$_{2}$,0.0,eV,,,,,,,
PbS,1.1559,eV,,,,,,,
NbInSe$_{2}$,0,eV,,,,,,,
CeRh,0.0,eV,,,,,,,
TmSbPd,0.35689999999999955,eV,,,,,,,
VCoSn,0.0,eV,,,,,,,
TmSb$_{2}$,0.0,eV,,,,,,,
TiPd$_{2}$,0.0,eV,,,,,,,
Tm,0.0,eV,,,,,,,
TiAu$_{2}$,0.0,eV,,,,,,,
Ti$_{2}$Rh,0.0,eV,,,,,,,
Ti$_{2}$Re,0.0,eV,,,,,,,
GaBi,0.0,eV,,,,,,,
TbSb$_{2}$,0.0,eV,,,,,,,
ScAg$_{2}$,0.0,eV,,,,,,,
Pt$_{2}$W,0.0,eV,,,,,,,
PaC$_{2}$,0.0,eV,,,,,,,
LuAg$_{2}$,0.0,eV,,,,,,,
AlBi,0.0,eV,,,,,,,
LiHPd,0.0,eV,,,,,,,
LaBiPt,0.0,eV,,,,,,,
EuKS$_{2}$,0.0,eV,,,,,,,
VI$_{2}$,1.0495999999999994,eV,,,,,,,
HoNiBi,0.19380000000000042,eV,,,,,,,
BaC$_{2}$,1.3769,eV,,,,,,,
LaH$_{3}$,0.0,eV,,,,,,,
GdCoC$_{2}$,0,eV,,,,,,,
EuPd,0.0,eV,,,,,,,
ScAu$_{2}$,0.0,eV,,,,,,,
ScCu$_{2}$,0.0,eV,,,,,,,
NbTe$_{2}$,0.0,eV,,,,,,,
NbPd$_{2}$,0.0,eV,,,,,,,
LuAu$_{2}$,0.0,eV,,,,,,,
HfAu$_{2}$,0.0,eV,,,,,,,
Hf$_{2}$Hg,0.0,eV,,,,,,,
Hf$_{2}$Cd,0.0,eV,,,,,,,
DySb$_{2}$,0.0,eV,,,,,,,
ErSb$_{2}$,0.0,eV,,,,,,,
PmN,0.0,eV,,,,,,,
CrNiSb,0.0,eV,,,,,,,
CeBiPt,0.0,eV,,,,,,,
AlTc$_{2}$,0.0,eV,,,,,,,
ThAu,0.0,eV,,,,,,,
GdFeC$_{2}$,0,eV,,,,,,,
EuC$_{2}$,0.0,eV,,,,,,,
Ba$_{2}$Zn,0.0,eV,,,,,,,
AlAu$_{2}$,0.0,eV,,,,,,,
LiZnP,1.3386,eV,,,,,,,
GaP,1.3104,eV,,,,,,,
CeGa,0.0,eV,,,,,,,
MgSbPd,0.0,eV,,,,,,,
MgSbPt,0,eV,,,,,,,
Mg$_{3}$ZnC,0.0,eV,,,,,,,
PuSi$_{2}$,0.0,eV,,,,,,,
ScBPt$_{3}$,0.0,eV,,,,,,,
ScPt$_{3}$C,0.0,eV,,,,,,,
YPd$_{3}$C,0.0,eV,,,,,,,
Ca(BeAs)$_{2}$,0.6618999999999993,eV,,,,,,,
Dy(CuS)$_{2}$,0.0,eV,,,,,,,
Ho(CuS)$_{2}$,0.0,eV,,,,,,,
LaBPt$_{3}$,0.0,eV,,,,,,,
Lu(CuS)$_{2}$,0.0,eV,,,,,,,
ScPd$_{3}$C,0.0,eV,,,,,,,
SnPd$_{3}$C,0.0,eV,,,,,,,
Tb(CuS)$_{2}$,0.0,eV,,,,,,,
Tb$_{3}$AlN,0.0,eV,,,,,,,
TiSnO$_{3}$,1.0478999999999994,eV,,,,,,,
Tm(CuS)$_{2}$,0.0,eV,,,,,,,
Tm$_{3}$AlN,0.0,eV,,,,,,,
Y(CuS)$_{2}$,0.0,eV,,,,,,,
YBPd$_{3}$,0.0,eV,,,,,,,
YBPt$_{3}$,0.0,eV,,,,,,,
YPt$_{3}$C,0.0,eV,,,,,,,
YbH$_{3}$Pd,0.0,eV,,,,,,,
YbNiH$_{3}$,0.0,eV,,,,,,,
AuN$_{2}$,0.0,eV,,,,,,,
BC$_{5}$,0.0,eV,,,,,,,
Ba$_{2}$ClF$_{3}$,5.7401,eV,,,,,,,
Ba$_{2}$H$_{3}$I,2.24,eV,,,,,,,
KCdSb,0.0,eV,,,,,,,
BaMgPb,0.0,eV,,,,,,,
BaMgSn,0.0,eV,,,,,,,
CN$_{2}$,2.3227,eV,,,,,,,
Ca$_{2}$H$_{3}$Br,1.5367999999999995,eV,,,,,,,
CaBiAu,0.0,eV,,,,,,,
CaCoSi,0.0,eV,,,,,,,
CeO$_{2}$,0.6968999999999994,eV,,,,,,,
CeCoSi,0.0,eV,,,,,,,
CePbAu,0.0,eV,,,,,,,
CeSbPd,0.0,eV,,,,,,,
CeS$_{2}$,0.0,eV,,,,,,,
CeO$_{2}$,1.9544000000000001,eV,,,,,,,
CeSi$_{2}$Mo$_{2}$C,0.0,eV,,,,,,,
CeTeCl,0.0,eV,,,,,,,
CeTlCd,0.0,eV,,,,,,,
CeTlZn,0.0,eV,,,,,,,
CeZnGa,0.0,eV,,,,,,,
CoAs$_{2}$,0.0,eV,,,,,,,
CoPPd,0.0,eV,,,,,,,
DyAlZn,0.0,eV,,,,,,,
DyS$_{2}$,0.0,eV,,,,,,,
CeSbAu,0.0,eV,,,,,,,
DyScSb,0.0,eV,,,,,,,
CsHSO$_{3}$,5.8302000000000005,eV,,,,,,,
DyTe$_{2}$,0.0,eV,,,,,,,
DyTlZn,0.0,eV,,,,,,,
DyZnIn,0.0,eV,,,,,,,
DyZnGa,0.0,eV,,,,,,,
DySe$_{2}$,0.0,eV,,,,,,,
Er$_{2}$Mg$_{3}$Ru,0.0,eV,,,,,,,
ErCuSn,0.0,eV,,,,,,,
ErH$_{2}$,0.0,eV,,,,,,,
ErS$_{2}$,0.0,eV,,,,,,,
ErTlZn,0.0,eV,,,,,,,
ErZnIn,0.0,eV,,,,,,,
ErZnGa,0.0,eV,,,,,,,
Eu$_{2}$H$_{3}$Br,0.0248999999999997,eV,,,,,,,
ErTe$_{2}$,0.0,eV,,,,,,,
Eu$_{2}$H$_{3}$Cl,0.07889999999999997,eV,,,,,,,
EuBiAu,0.0,eV,,,,,,,
EuCdPb,0.0,eV,,,,,,,
EuCdSn,0.0,eV,,,,,,,
EuHgPb,0.0,eV,,,,,,,
TeIr,0.0,eV,,,,,,,
EuO$_{2}$,0.0,eV,,,,,,,
EuSnHg,0.0,eV,,,,,,,
GdAlZn,0.0,eV,,,,,,,
GdCuPb,0,eV,,,,,,,
GdS$_{2}$,0.0,eV,,,,,,,
GdSe$_{2}$,0.0,eV,,,,,,,
GdTlZn,0.0,eV,,,,,,,
Hf$_{2}$GaSb$_{3}$,0.0,eV,,,,,,,
Hf$_{2}$TaN$_{3}$,0.0,eV,,,,,,,
GdZnIn,0,eV,,,,,,,
HfGa$_{4}$Co,0.0,eV,,,,,,,
HfCuSn,0.0,eV,,,,,,,
HfGaCu,0.0,eV,,,,,,,
Hf$_{5}$Pb,0.0,eV,,,,,,,
HfN$_{2}$,0.5732999999999997,eV,,,,,,,
HfSb$_{2}$,0.0,eV,,,,,,,
HfTa$_{2}$N$_{3}$,0.0,eV,,,,,,,
HfTaNO$_{3}$,1.8978000000000002,eV,,,,,,,
HfVSi,0.0,eV,,,,,,,
HfO$_{2}$,4.668200000000001,eV,,,,,,,
HgSe,1.0322,eV,,,,,,,
HoCo$_{3}$Cu$_{2}$,0.0,eV,,,,,,,
HoCuSn,0.0,eV,,,,,,,
HoFeSi,0.0,eV,,,,,,,
HfVGe,0.0,eV,,,,,,,
HoS$_{2}$,0.0,eV,,,,,,,
HoSe$_{2}$,0.0,eV,,,,,,,
HoZnIn,0.0,eV,,,,,,,
In$_{2}$Cu,0.0,eV,,,,,,,
HoSI,2.7207999999999997,eV,,,,,,,
HoTe$_{2}$,0.0,eV,,,,,,,
BaTi$_{2}$As$_{2}$O,0.0,eV,,,,,,,
KCdAs,0.17270000000000008,eV,,,,,,,
KMgP,1.6589,eV,,,,,,,
LaAl$_{2}$BRu$_{2}$,0.0,eV,,,,,,,
KMnBi,0.0,eV,,,,,,,
LaCoSi,0.0,eV,,,,,,,
LaCuPb,0.0,eV,,,,,,,
LaNi$_{2}$Rh$_{3}$,0.0,eV,,,,,,,
LaNi$_{3}$Rh$_{2}$,0.0,eV,,,,,,,
LaPbAu,0.0,eV,,,,,,,
LaSbPd,0.0,eV,,,,,,,
LaGe$_{2}$Ir$_{3}$,0.0,eV,,,,,,,
LaSbTe,0.0,eV,,,,,,,
LaS$_{2}$,0.0,eV,,,,,,,
LaTeCl,0.6562999999999999,eV,,,,,,,
LaTlCd,0.0,eV,,,,,,,
LaTlZn,0.0,eV,,,,,,,
LaZnGa,0.0,eV,,,,,,,
LaZnIn,0.0,eV,,,,,,,
Li$_{3}$CeSb$_{2}$,0.0,eV,,,,,,,
Li$_{3}$CeBi$_{2}$,0.0,eV,,,,,,,
Li$_{3}$DySb$_{2}$,0.0,eV,,,,,,,
Li$_{3}$HoSb$_{2}$,0.0,eV,,,,,,,
Li$_{3}$LaAs$_{2}$,0.5023,eV,,,,,,,
Li$_{3}$LaBi$_{2}$,0.1578999999999997,eV,,,,,,,
Li$_{3}$NdSb$_{2}$,0.0,eV,,,,,,,
Li$_{3}$PrBi$_{2}$,0.0,eV,,,,,,,
Li$_{3}$PrSb$_{2}$,0.0,eV,,,,,,,
Li$_{3}$SmBi$_{2}$,0.0,eV,,,,,,,
Li$_{3}$SmSb$_{2}$,0.0,eV,,,,,,,
Li$_{3}$YBi$_{2}$,0.0,eV,,,,,,,
LiBeB,0.0,eV,,,,,,,
LiCe(CuP)$_{2}$,0.0,eV,,,,,,,
LiFeAs,0.0,eV,,,,,,,
LiMnSb,0.0,eV,,,,,,,
LiO$_{2}$,0.0,eV,,,,,,,
LiY(CuP)$_{2}$,0.0,eV,,,,,,,
LuS$_{2}$,0.0,eV,,,,,,,
LuSe$_{2}$,0.0,eV,,,,,,,
Mg$_{2}$Ge,0.0,eV,,,,,,,
Mg$_{2}$Sn,0.0,eV,,,,,,,
Mg$_{2}$Si,0.0,eV,,,,,,,
MgCuGe,0.0,eV,,,,,,,
MgSc$_{3}$Ru$_{2}$,0.0,eV,,,,,,,
Fe$_{3}$S$_{4}$,0.0,eV,,,,,,,
MnCuAs,0.0,eV,,,,,,,
MnGaGe,0.0,eV,,,,,,,
MnCoSb,0.0,eV,,,,,,,
MnS$_{2}$,0.0,eV,,,,,,,
MoSeS,0.6398000000000001,eV,,,,,,,
MoSe$_{2}$,1.2530999999999994,eV,,,,,,,
MgCoGe,0.0,eV,,,,,,,
MoS$_{2}$,1.3377,eV,,,,,,,
Na$_{2}$Cl,0.0,eV,,,,,,,
NbGeSb,0.0,eV,,,,,,,
NbGeAs,0.0,eV,,,,,,,
NdCoP,0.0,eV,,,,,,,
NdSbTe,0.0,eV,,,,,,,
NdSbPd,0.0,eV,,,,,,,
NdSe$_{2}$,0.0,eV,,,,,,,
NdTeCl,0.41999999999999993,eV,,,,,,,
NdTlCd,0.0,eV,,,,,,,
NdTlZn,0.0,eV,,,,,,,
NdZnIn,0.0,eV,,,,,,,
NiPRh,0.0,eV,,,,,,,
NpSbTe,0.0,eV,,,,,,,
NdPbAu,0.0,eV,,,,,,,
NdGeAu,0.0,eV,,,,,,,
NpSeO,0.0,eV,,,,,,,
NpTe$_{2}$,0.0,eV,,,,,,,
OsC$_{2}$,0.04699999999999882,eV,,,,,,,
PaSb$_{2}$,0.0,eV,,,,,,,
PdO$_{2}$,0.0,eV,,,,,,,
PdCl$_{2}$,0.9724,eV,,,,,,,
PaP$_{2}$,0.0,eV,,,,,,,
PdCl$_{2}$,0.7861999999999999,eV,,,,,,,
PrCoSi,0.0,eV,,,,,,,
PrCuSn,0.0,eV,,,,,,,
PrFeSi,0.0,eV,,,,,,,
PrPbAu,0.0,eV,,,,,,,
PrCoP,0.0,eV,,,,,,,
PrSbPd,0.0,eV,,,,,,,
LiTiTe$_{2}$,0.0,eV,,,,,,,
PrCuPb,0.0,eV,,,,,,,
PrSbPt,0.0,eV,,,,,,,
PrSbTe,0.0,eV,,,,,,,
PrSe$_{2}$,0.0,eV,,,,,,,
PrTeCl,0.4276,eV,,,,,,,
PrTlCd,0.0,eV,,,,,,,
PrZnGa,0.0,eV,,,,,,,
Re$_{2}$N,0.0,eV,,,,,,,
RbMnBi,0.0,eV,,,,,,,
PrZnIn,0.0,eV,,,,,,,
PuSbTe,0.007400000000000517,eV,,,,,,,
PuSe$_{2}$,0.0,eV,,,,,,,
YNi$_{2}$,0.0,eV,,,,,,,
Lu,0.044500000000000206,eV,,,,,,,
RuN$_{2}$,0.0,eV,,,,,,,
CN$_{2}$,4.6339999999999995,eV,,,,,,,
CaSnHg,0.0,eV,,,,,,,
KMgAs,1.1621,eV,,,,,,,
LaSe$_{2}$,0.0,eV,,,,,,,
PrGeAu,0.0,eV,,,,,,,
SiC$_{2}$,0.0,eV,,,,,,,
SmCoP,0.0,eV,,,,,,,
Lu$_{2}$MgSe$_{4}$,1.4769999999999999,eV,,,,,,,
SmFeSi,0.0,eV,,,,,,,
SmGeAu,0.0,eV,,,,,,,
SmMnSi,0.0,eV,,,,,,,
SmSbPd,0.0,eV,,,,,,,
KMgBi,0.38549999999999995,eV,,,,,,,
PuTe$_{2}$,0.006800000000000139,eV,,,,,,,
SmCoSi,0.0,eV,,,,,,,
SmGeRu,0.0,eV,,,,,,,
SmPbAu,0.0,eV,,,,,,,
SmSbTe,0.0,eV,,,,,,,
LuP,0,eV,,,,,,,
Pd$_{2}$N,0.0,eV,,,,,,,
SmSe$_{2}$,0.0,eV,,,,,,,
SmTlCd,0.0,eV,,,,,,,
SmTlZn,0.0,eV,,,,,,,
SmZnGa,0.0,eV,,,,,,,
SrF$_{2}$,5.9356,eV,,,,,,,
SrSnHg,0.0,eV,,,,,,,
Ta$_{2}$N$_{3}$O,0.0,eV,,,,,,,
SmTe$_{2}$,0.0,eV,,,,,,,
Sr$_{2}$H$_{3}$I,2.0576000000000003,eV,,,,,,,
Ta$_{2}$TiN$_{3}$,0.0,eV,,,,,,,
TaTi$_{2}$N$_{3}$,0.0,eV,,,,,,,
TbCuSn,0.0,eV,,,,,,,
TaSe$_{2}$,0.0,eV,,,,,,,
SrHgPb,0.0,eV,,,,,,,
TbGeAu,0.0,eV,,,,,,,
SrZnSn,0.0,eV,,,,,,,
SrZnPb,0.0,eV,,,,,,,
Ta$_{2}$N$_{3}$F,0.0,eV,,,,,,,
LuPPt,0,eV,,,,,,,
TbSbPd,0.0,eV,,,,,,,
Tc$_{2}$N,0.0,eV,,,,,,,
TcB$_{2}$,0.0,eV,,,,,,,
Te$_{2}$W,0.9395999999999995,eV,,,,,,,
Th$_{2}$HN$_{3}$,1.4164000000000003,eV,,,,,,,
TbTe$_{2}$,0.0,eV,,,,,,,
ThAsSe,0.0,eV,,,,,,,
ThAsS,0.0,eV,,,,,,,
ThSbSe,0.0,eV,,,,,,,
ThPSe,0.0,eV,,,,,,,
ThSbTe,0.0,eV,,,,,,,
ThBiTe,0.0,eV,,,,,,,
ThTeAs,0.0,eV,,,,,,,
Al(PO$_{3}$)$_{3}$,5.8176,eV,,,,,,,
Al$_{3}$GaN$_{4}$,3.3481000000000005,eV,,,,,,,
AlB$_{3}$N$_{4}$,3.5966000000000005,eV,,,,,,,
Al$_{3}$BN$_{4}$,3.359,eV,,,,,,,
Al$_{7}$Si$_{3}$BO$_{18}$,4.6157,eV,,,,,,,
LuSbPt,0.0,eV,,,,,,,
AlGa$_{3}$N$_{4}$,2.1797999999999997,eV,,,,,,,
B$_{2}$S$_{2}$O$_{9}$,6.6762,eV,,,,,,,
AlPO$_{4}$,5.478400000000001,eV,,,,,,,
AlPO$_{4}$,5.556900000000001,eV,,,,,,,
AlPO$_{4}$,5.2949,eV,,,,,,,
AlPO$_{4}$,5.6296,eV,,,,,,,
AlPO$_{4}$,5.4686,eV,,,,,,,
Ba$_{3}$Ga$_{3}$N$_{5}$,1.4175999999999997,eV,,,,,,,
Ba$_{4}$GaN$_{3}$O,1.1839,eV,,,,,,,
Ba$_{4}$Mg(SiN$_{3}$)$_{2}$,1.5934999999999997,eV,,,,,,,
Ba$_{2}$CaSi$_{4}$(BO$_{7}$)$_{2}$,4.8764,eV,,,,,,,
Ba$_{2}$NaO,0.0,eV,,,,,,,
Ba$_{3}$Ca$_{2}$(SiN$_{3}$)$_{2}$,1.5518,eV,,,,,,,
Ba$_{3}$MgGeN$_{4}$,1.2902,eV,,,,,,,
Ba$_{2}$B$_{10}$O$_{17}$,5.6719,eV,,,,,,,
Ba$_{3}$NaY$_{3}$(Si$_{3}$O$_{10}$)$_{2}$,5.0048,eV,,,,,,,
Ba$_{3}$P$_{6}$(N$_{4}$O$_{3}$)$_{2}$,4.546600000000001,eV,,,,,,,
Ba$_{3}$ZnB$_{5}$PO$_{14}$,4.8405000000000005,eV,,,,,,,
Ba$_{3}$Si$_{2}$(B$_{3}$O$_{8}$)$_{2}$,5.3993,eV,,,,,,,
Ba$_{3}$Y$_{2}$(B$_{2}$O$_{5}$)$_{3}$,4.5196000000000005,eV,,,,,,,
Ba$_{2}$Mg(BO$_{2}$)$_{6}$,5.2119,eV,,,,,,,
Ba$_{8}$Al$_{10}$B$_{12}$O$_{41}$,4.4373,eV,,,,,,,
Ba$_{2}$P$_{2}$O$_{7}$,5.1483,eV,,,,,,,
BaAl$_{2}$Si$_{3}$(NO)$_{4}$,3.5604,eV,,,,,,,
BaAl$_{4}$O$_{7}$,4.1958,eV,,,,,,,
Ba$_{9}$Y$_{2}$(SiO$_{4}$)$_{6}$,4.5047,eV,,,,,,,
BaAl$_{4}$O$_{7}$,3.6891,eV,,,,,,,
BaAl$_{2}$(SiO$_{4}$)$_{2}$,4.9061,eV,,,,,,,
BaAl$_{2}$(SiO$_{4}$)$_{2}$,4.911199999999999,eV,,,,,,,
BaAlSi$_{4}$N$_{5}$O$_{3}$,3.2180999999999997,eV,,,,,,,
BaB$_{2}$S$_{3}$O$_{13}$,6.181,eV,,,,,,,
BaCa$_{3}$O$_{4}$,2.3279,eV,,,,,,,
BaCaB$_{2}$O$_{5}$,4.4673,eV,,,,,,,
BaCaP$_{2}$O$_{7}$,5.3187,eV,,,,,,,
BaZrO$_{3}$,3.1193000000000004,eV,,,,,,,
Be(PN$_{2}$)$_{2}$,4.0393,eV,,,,,,,
BaY$_{4}$Si$_{5}$O$_{17}$,4.8104,eV,,,,,,,
BaLi$_{2}$Mg(PO$_{4}$)$_{2}$,5.638199999999999,eV,,,,,,,
BaGe(S$_{2}$O$_{7}$)$_{3}$,3.9450000000000003,eV,,,,,,,
BaMg$_{2}$Si$_{2}$O$_{7}$,4.5563,eV,,,,,,,
BeGeN$_{2}$,3.3941,eV,,,,,,,
BaNa$_{2}$Mg(PO$_{4}$)$_{2}$,4.869199999999999,eV,,,,,,,
Ca$_{16}$(SiN$_{2}$)$_{17}$,0.0,eV,,,,,,,
BaNaB$_{5}$O$_{9}$,5.0076,eV,,,,,,,
BaNaLi$_{3}$(BO$_{2}$)$_{6}$,5.2185,eV,,,,,,,
BaS$_{4}$O$_{13}$,4.6756,eV,,,,,,,
BaSr$_{2}$Mg(SiO$_{4}$)$_{2}$,4.759,eV,,,,,,,
Ca$_{2}$B$_{2}$O$_{5}$,4.692,eV,,,,,,,
Ca$_{2}$B$_{2}$O$_{5}$,4.7085,eV,,,,,,,
Ca$_{2}$GeO$_{4}$,3.5549999999999997,eV,,,,,,,
Ca$_{2}$SiO$_{4}$,4.1723,eV,,,,,,,
Ca$_{2}$SiO$_{4}$,3.3021,eV,,,,,,,
Ca$_{6}$Ge$_{2}$O,0.2902,eV,,,,,,,
Ca$_{3}$Ga$_{2}$(GeO$_{4}$)$_{3}$,2.9786,eV,,,,,,,
Ca$_{3}$ZnGe$_{5}$O$_{14}$,2.4862,eV,,,,,,,
CaAl$_{2}$SiO$_{6}$,4.4797,eV,,,,,,,
Ca$_{10}$Ge$_{16}$(B$_{2}$O$_{17}$)$_{3}$,3.0989000000000004,eV,,,,,,,
Ca$_{8}$Si$_{5}$O$_{18}$,4.545,eV,,,,,,,
CaAl$_{2}$SiO$_{6}$,4.549800000000001,eV,,,,,,,
CaAl$_{2}$SiO$_{6}$,4.6134,eV,,,,,,,
Ca$_{4}$Al$_{6}$SO$_{16}$,4.4190000000000005,eV,,,,,,,
Ca$_{4}$SiN$_{4}$,1.4498000000000002,eV,,,,,,,
Ca$_{4}$P$_{2}$O$_{9}$,4.4892,eV,,,,,,,
Ca$_{5}$(SiN$_{3}$)$_{2}$,2.4590999999999994,eV,,,,,,,
CaMg$_{3}$SiN$_{4}$,2.4021,eV,,,,,,,