formula,Property Band Gap,Property Band Gap units,Property Band gap,Property Band gap units,Temperature (Property Band gap),Temperature (Property Band gap) units,Property Color,Temperature (Property Color),Temperature (Property Color) units
TlInSe$_{2}$,0.7351000000000001,eV,,,,,,,
Zr$_{4}$Co$_{4}$Ge$_{7}$,0.0,eV,,,,,,,
Eu$_{2}$C(NO)$_{2}$,0.0,eV,,,,,,,
Cs$_{2}$MnSnTe$_{4}$,0.3822000000000001,eV,,,,,,,
In$_{3}$Co,0.0,eV,,,,,,,
CeMgCu$_{2}$,0.0,eV,,,,,,,
TbSnPt,0.0,eV,,,,,,,
GeRh,0.0,eV,,,,,,,
EuTiO$_{3}$,0.0,eV,,,,,,,
ErSiRu,0.0,eV,,,,,,,
Eu(BO$_{2}$)$_{3}$,0.0,eV,,,,,,,
CeSbRh,0.0,eV,,,,,,,
Be$_{2}$Fe,0.0,eV,,,,,,,
Mg$_{2}$SiB$_{2}$Ir$_{5}$,0.0,eV,,,,,,,
TbGaPt,0.0,eV,,,,,,,
Zn(InS$_{2}$)$_{2}$,0.11450000000000049,eV,,,,,,,
RbInTe$_{2}$,1.1089000000000002,eV,,,,,,,
NdMnSi,0.0,eV,,,,,,,
Zn$_{2}$PdO$_{4}$,0.0,eV,,,,,,,
HfSiMo,0.0,eV,,,,,,,
Yb$_{2}$Ru$_{2}$O$_{7}$,0.0,eV,,,,,,,
DyPd,0.0,eV,,,,,,,
Y(MnSn)$_{6}$,0.0,eV,,,,,,,
InCuTe$_{2}$,0.0029999999999992255,eV,,,,,,,
CoMoP,0.0,eV,,,,,,,
Yb$_{3}$SnC,0.013900000000000023,eV,,,,,,,
CsSr$_{2}$Nb$_{3}$O$_{10}$,1.4423,eV,,,,,,,
GdB$_{6}$,0.0,eV,,,,,,,
Y(MnGe)$_{6}$,0.0,eV,,,,,,,
ZrPRu,0.0,eV,,,,,,,
CoP,0.0,eV,,,,,,,
Cu(AsO$_{2}$)$_{2}$,0.4283999999999999,eV,,,,,,,
Ba$_{2}$UCuO$_{6}$,0.0,eV,,,,,,,
HoTiSi,0.0,eV,,,,,,,
YSnPt,0.0,eV,,,,,,,
Mn$_{2}$InCo,0.0,eV,,,,,,,
EuCuAs,0.0829999999999993,eV,,,,,,,
EuBa$_{2}$NbO$_{6}$,0.0,eV,,,,,,,
ErMg,0.04279999999999973,eV,,,,,,,
LaIn$_{2}$,0.0,eV,,,,,,,
SrInPt,0.0,eV,,,,,,,
Ag$_{5}$(PbO$_{3}$)$_{2}$,0.0,eV,,,,,,,
NbGeIr,0.0,eV,,,,,,,
BaCe$_{2}$CoS$_{5}$,0.0,eV,,,,,,,
Mn$_{2}$CoGe,0.0,eV,,,,,,,
ZnO,0.7193999999999998,eV,,,,,,,
Mn$_{6}$Si$_{7}$Ni$_{16}$,0.0,eV,,,,,,,
CsGdHgSe$_{3}$,1.2745000000000002,eV,,,,,,,
EuCuSb,0.0,eV,,,,,,,
PrZnSn,0.0,eV,,,,,,,
Ca(Cu$_{2}$P)$_{2}$,0.0,eV,,,,,,,
Cu$_{2}$Se,0.0,eV,,,,,,,
TbNiSn,0.0,eV,,,,,,,
GeO$_{2}$,3.2493,eV,,,,,,,
FeCo$_{2}$Ge,0.0,eV,,,,,,,
Sr$_{2}$DyCu$_{3}$(PbO$_{4}$)$_{2}$,0.0,eV,,,,,,,
ZrVP,0.0,eV,,,,,,,
Rb$_{3}$InS$_{3}$,2.262,eV,,,,,,,
Cd(InSe$_{2}$)$_{2}$,0.9544999999999999,eV,,,,,,,
NaCu$_{3}$(RuO$_{3}$)$_{4}$,0.0,eV,,,,,,,
Eu$_{2}$CuO$_{4}$,0.0,eV,,,,,,,
ScSi$_{2}$Rh,0.0,eV,,,,,,,
SnS,0.9055,eV,,,,,,,
UCrC$_{2}$,0.0,eV,,,,,,,
EuNi$_{5}$,0.006399999999999295,eV,,,,,,,
Nb$_{4}$FeSi,0.01890000000000036,eV,,,,,,,
Na$_{2}$PtO$_{2}$,1.4632999999999998,eV,,,,,,,
HfCoSn,0.0,eV,,,,,,,
UB$_{12}$,0.0,eV,,,,,,,
CS$_{2}$,3.4275,eV,,,,,,,
GaRu,0.0,eV,,,,,,,
EuInPd,0.028200000000000003,eV,,,,,,,
In$_{2}$O$_{3}$,0.9578999999999995,eV,,,,,,,
TbGePt,0.0,eV,,,,,,,
P$_{2}$Pb$_{2}$O$_{7}$,3.6475,eV,,,,,,,
Mg$_{4}$As$_{6}$Rh$_{7}$,0.0,eV,,,,,,,
PuGa$_{3}$,0.017699999999999605,eV,,,,,,,
K$_{4}$PbO$_{4}$,1.6772,eV,,,,,,,
NaNd$_{2}$OsO$_{6}$,0.5409999999999999,eV,,,,,,,
Th$_{2}$Ag,0.0,eV,,,,,,,
NdTiGe,0.0,eV,,,,,,,
TaInS$_{2}$,0.0,eV,,,,,,,
GdB$_{2}$Ru$_{3}$,0.03310000000000013,eV,,,,,,,
Hf$_{5}$Ga$_{3}$,0.0,eV,,,,,,,
EuOF,0.0040999999999999925,eV,,,,,,,
ThCoSn,0.0,eV,,,,,,,
Er$_{2}$S$_{3}$,1.4611999999999998,eV,,,,,,,
PbSeO$_{4}$,3.2987,eV,,,,,,,
Ce(GeRu)$_{2}$,0.0,eV,,,,,,,
Sn$_{7}$Ru$_{3}$,0.0,eV,,,,,,,
BaGe$_{3}$Pt,0.0,eV,,,,,,,
Sm(FeGe)$_{2}$,0.0,eV,,,,,,,
YbRh$_{2}$,0.0,eV,,,,,,,
Nd$_{3}$SnN,0.0,eV,,,,,,,
NbRu$_{3}$C,0.05349999999999966,eV,,,,,,,
Ba$_{3}$InRu$_{2}$O$_{9}$,0.008000000000000007,eV,,,,,,,
Sr$_{2}$InSbO$_{6}$,1.7508999999999997,eV,,,,,,,
In$_{2}$HgS$_{4}$,0.34830000000000005,eV,,,,,,,
UIr,0.0,eV,,,,,,,
U$_{2}$Co$_{2}$Sn,0.0,eV,,,,,,,
CeReB$_{4}$,0.0,eV,,,,,,,
Eu$_{3}$RuO$_{7}$,0.008099999999999774,eV,,,,,,,
PdPbO$_{2}$,0.0,eV,,,,,,,
FeSb$_{6}$(Pb$_{2}$S$_{7}$)$_{2}$,0.0,eV,,,,,,,
TeO$_{2}$,0.0,eV,,,,,,,
Mn$_{6}$Ni$_{16}$P$_{7}$,0.0,eV,,,,,,,
U(SiCu)$_{2}$,0.0022999999999999687,eV,,,,,,,
In$_{2}$S$_{3}$,0.28000000000000025,eV,,,,,,,
ZrCoSb,0.0,eV,,,,,,,
CsCd(NO$_{2}$)$_{3}$,0.0,eV,,,,,,,
Y$_{3}$(Co$_{2}$Sn)$_{4}$,0.0,eV,,,,,,,
Dy$_{2}$C$_{3}$,0.0,eV,,,,,,,
TbInAg$_{2}$,0.0,eV,,,,,,,
Pu(CoSi)$_{2}$,0.009399999999999409,eV,,,,,,,
DyInPt,0.006899999999999906,eV,,,,,,,
Np(Al$_{2}$Fe)$_{4}$,0.0,eV,,,,,,,
InAgTe$_{2}$,0.06529999999999969,eV,,,,,,,
U$_{2}$N$_{3}$,0.0,eV,,,,,,,
SrRuO$_{3}$,0.0,eV,,,,,,,
SmCuSeF,0.0,eV,,,,,,,
ThRu$_{3}$C,0.0,eV,,,,,,,
KCeSe$_{4}$,0.0,eV,,,,,,,
Nb$_{4}$SiNi,0.0,eV,,,,,,,
Nd(GeRu)$_{2}$,0.0,eV,,,,,,,
Yb$_{2}$S$_{2}$O,0.6983999999999999,eV,,,,,,,
WS$_{2}$,1.5625,eV,,,,,,,
MnCu$_{2}$SnSe$_{4}$,0.0,eV,,,,,,,
Nd$_{2}$Re$_{3}$Si$_{5}$,0.0,eV,,,,,,,
Co(C$_{2}$N$_{3}$)$_{2}$,0.0,eV,,,,,,,
Ni(C$_{2}$N$_{3}$)$_{2}$,0.9374,eV,,,,,,,
BaSi$_{2}$Cu$_{2}$O$_{7}$,0.0,eV,,,,,,,
Hf$_{3}$B$_{2}$Ir$_{5}$,0.0,eV,,,,,,,
Ba(MnGe)$_{2}$,0.0,eV,,,,,,,
FeCu$_{2}$(CN)$_{6}$,0.0,eV,,,,,,,
CuSeO$_{3}$,0.06260000000000021,eV,,,,,,,
SmTiO$_{3}$,0.0,eV,,,,,,,
Sr$_{3}$(SnIr)$_{4}$,0.0,eV,,,,,,,
NdSnPd,0.0,eV,,,,,,,
GeS,1.2375999999999996,eV,,,,,,,
CuTeO$_{4}$,0.0,eV,,,,,,,
Ce$_{3}$Te$_{4}$,0.0,eV,,,,,,,
BaLa$_{2}$CoS$_{5}$,0.0,eV,,,,,,,
Na$_{2}$SO$_{4}$,0.0,eV,,,,,,,
Sc$_{2}$FeB$_{2}$Ir$_{5}$,0.0,eV,,,,,,,
ScSiNi,0.0,eV,,,,,,,
SrCeO$_{3}$,2.2876,eV,,,,,,,
NbS,0.0,eV,,,,,,,
BAsPbO$_{5}$,3.3720999999999997,eV,,,,,,,
Yb$_{2}$Ti$_{2}$O$_{7}$,0.0,eV,,,,,,,
Ti$_{4}$Cu$_{2}$O,0.0,eV,,,,,,,
Np(SiIr)$_{2}$,0.0,eV,,,,,,,
HfFeP,0.0,eV,,,,,,,
CeBPt$_{3}$,0.0,eV,,,,,,,
Re$_{6}$P$_{13}$,0.0,eV,,,,,,,
Ce(SiPt)$_{2}$,0.0,eV,,,,,,,
LuSiIr,0.0,eV,,,,,,,
Ba$_{2}$MgReO$_{6}$,0.0,eV,,,,,,,
Ba$_{2}$NaOsO$_{6}$,0.0,eV,,,,,,,
Ta$_{4}$FeP,0.0,eV,,,,,,,
Li$_{2}$PrSb$_{2}$,0.0,eV,,,,,,,
Zr$_{3}$P,0.0,eV,,,,,,,
InCu(PSe$_{3}$)$_{2}$,0.31110000000000015,eV,,,,,,,
Si$_{3}$N$_{4}$,4.654700000000001,eV,,,,,,,
Li$_{2}$PbO$_{3}$,1.044,eV,,,,,,,
MoPRu,0.0,eV,,,,,,,
PuCo$_{3}$,0.001200000000000756,eV,,,,,,,
YbGePt,0.0,eV,,,,,,,
K$_{3}$Na(SO$_{4}$)$_{2}$,5.2921000000000005,eV,,,,,,,
LiIn,0.0,eV,,,,,,,
TiInNi$_{2}$,0.0,eV,,,,,,,
NaO$_{3}$,0.5780000000000001,eV,,,,,,,
Mn$_{2}$CoSn,0.0,eV,,,,,,,
SrIn$_{4}$,0.0,eV,,,,,,,
Sn(PbO$_{2}$)$_{2}$,2.0634000000000006,eV,,,,,,,
Tb$_{2}$Fe$_{3}$Si$_{5}$,0.012800000000000367,eV,,,,,,,
InNi$_{3}$,0.0,eV,,,,,,,
AgN$_{3}$,1.5714,eV,,,,,,,
La(FeAs$_{3}$)$_{4}$,0.0,eV,,,,,,,
Nd$_{2}$NiB$_{10}$,0.0968,eV,,,,,,,
Ba$_{3}$CuRu$_{2}$O$_{9}$,0.0,eV,,,,,,,
NaInSe$_{2}$,1.0191999999999997,eV,,,,,,,
EuSbAu,0.04900000000000038,eV,,,,,,,
Ta$_{2}$P,0.0,eV,,,,,,,
FeGe,0.0,eV,,,,,,,
Zr$_{4}$Pd$_{2}$O,0.0,eV,,,,,,,
GdScSi,0.002500000000000391,eV,,,,,,,
KIn$_{4}$,0.0,eV,,,,,,,
ErMn$_{12}$,0.0,eV,,,,,,,
NaInTe$_{2}$,0.6388999999999996,eV,,,,,,,
TbCuSb$_{2}$,0.0,eV,,,,,,,
Tb(MnGe)$_{2}$,0.0,eV,,,,,,,
EuScO$_{3}$,0.0,eV,,,,,,,
Co$_{2}$C,0.0,eV,,,,,,,
HfSiCu,0.0,eV,,,,,,,
HoZn,0.0,eV,,,,,,,
Sc$_{3}$(NiGe)$_{4}$,0.0,eV,,,,,,,
Mn$_{3}$GeIr,0.0,eV,,,,,,,
YInAu$_{2}$,0.0,eV,,,,,,,
Nd$_{3}$TlN,0.0,eV,,,,,,,
HoSiRu,0.0,eV,,,,,,,
CrSb$_{2}$,0.0,eV,,,,,,,
EuSnF$_{7}$,0.037800000000000056,eV,,,,,,,
ErZn$_{5}$,0.0,eV,,,,,,,
ZrNi$_{2}$,0.0,eV,,,,,,,
Mn$_{3}$IrN,0.0,eV,,,,,,,
ZrCo$_{2}$Sn,0.0,eV,,,,,,,
Eu$_{2}$SiS$_{4}$,0.3846000000000007,eV,,,,,,,
GdAl$_{3}$Pd$_{2}$,0.021600000000000286,eV,,,,,,,
Cs$_{6}$InAs$_{3}$,0.5004999999999997,eV,,,,,,,
YMn$_{12}$,0.0,eV,,,,,,,
Li$_{3}$N,0.9840000000000001,eV,,,,,,,
Ce$_{2}$MgGe$_{2}$,0.0,eV,,,,,,,
Sr$_{2}$In$_{2}$O$_{5}$,0.9984999999999999,eV,,,,,,,
Dy$_{3}$TlC,0.0,eV,,,,,,,
Mn$_{2}$Sn,0.0,eV,,,,,,,
Rb$_{2}$CuPb(NO$_{2}$)$_{6}$,0.0,eV,,,,,,,
EuYSi$_{4}$N$_{7}$,0.5528999999999993,eV,,,,,,,
CeRh$_{3}$C,0.0,eV,,,,,,,
ScB$_{2}$,0.0,eV,,,,,,,
ZrSiCu,0.0,eV,,,,,,,
CeP$_{2}$O$_{7}$,1.5859,eV,,,,,,,
ThCrB$_{4}$,0.0,eV,,,,,,,
SrInAu,0.0,eV,,,,,,,
YbLaO$_{3}$,0.0,eV,,,,,,,
Ba$_{2}$GdNbO$_{6}$,2.71,eV,,,,,,,
TbTiSi,0.0,eV,,,,,,,
SrRuO$_{3}$,0.0026000000000001577,eV,,,,,,,
HfPbO$_{3}$,2.4163000000000006,eV,,,,,,,
U$_{3}$S$_{5}$,0.0,eV,,,,,,,
Er$_{3}$SnC,0.0,eV,,,,,,,
Li$_{8}$PbO$_{6}$,2.3403,eV,,,,,,,
CeNiSb$_{2}$,0.004400000000000404,eV,,,,,,,
Al$_{2}$O$_{3}$,4.8274,eV,,,,,,,
MnNiSb,0.0,eV,,,,,,,
Tm$_{3}$PbC,0.0,eV,,,,,,,
Sr$_{2}$GdCu$_{3}$(PbO$_{4}$)$_{2}$,0.0,eV,,,,,,,
EuGa$_{3}$Co$_{2}$,0.0032000000000005357,eV,,,,,,,
CoAsRh,0.0,eV,,,,,,,
Th$_{2}$CoB$_{10}$,0.0,eV,,,,,,,
BaDy$_{2}$CuO$_{5}$,0.0,eV,,,,,,,
UP$_{2}$(PbO$_{5}$)$_{2}$,1.7665999999999995,eV,,,,,,,
RhS$_{2}$,0.0,eV,,,,,,,
Tm$_{3}$TlC,0.0,eV,,,,,,,
TiSi,0.0,eV,,,,,,,
Pu(SiRu)$_{2}$,0.0,eV,,,,,,,
Pr$_{2}$ReC$_{2}$,0.0,eV,,,,,,,
Gd(LuS$_{2}$)$_{3}$,1.0491999999999995,eV,,,,,,,
MnSiRh,0.0,eV,,,,,,,
TlInS$_{2}$,0.6884000000000006,eV,,,,,,,
V$_{3}$Ga,0.0,eV,,,,,,,
InPO$_{4}$,2.7239,eV,,,,,,,
Mg$_{5}$In$_{2}$,0.0,eV,,,,,,,
Tb$_{4}$CoB$_{13}$,0.0,eV,,,,,,,
HgP$_{14}$Pb,1.2948000000000004,eV,,,,,,,
Sc$_{3}$As$_{2}$,0.0,eV,,,,,,,
Pb$_{3}$SO$_{6}$,2.8022,eV,,,,,,,
Cu$_{3}$Au,0.0,eV,,,,,,,
ZrGaNi$_{2}$,0.0,eV,,,,,,,
Tb$_{3}$Mn$_{3}$Ga$_{2}$Si,0.0,eV,,,,,,,
KInP$_{2}$S$_{7}$,2.0423,eV,,,,,,,
GeRh$_{2}$,0.0,eV,,,,,,,
Cd(InSe$_{2}$)$_{2}$,0.4579000000000004,eV,,,,,,,
TiFeSn,0.0,eV,,,,,,,
CaTi$_{4}$(CuO$_{4}$)$_{3}$,0.0,eV,,,,,,,
Ba$_{2}$LuIrO$_{6}$,0.0049000000000001265,eV,,,,,,,
UAsSe,0.0,eV,,,,,,,
Ni$_{3}$(PbS)$_{2}$,0.0,eV,,,,,,,
RbCd(NO$_{2}$)$_{3}$,0.0,eV,,,,,,,
In$_{2}$O$_{3}$,0.9324000000000003,eV,,,,,,,
FeS$_{2}$,0.4562000000000008,eV,,,,,,,
FePt,0.0,eV,,,,,,,
Ba$_{2}$Ca$_{2}$Cu$_{3}$HgO$_{8}$,0.03230000000000022,eV,,,,,,,
CaIn$_{2}$Au,0.0,eV,,,,,,,
InAsF$_{6}$,3.3845,eV,,,,,,,
Cr$_{2}$CdSe$_{4}$,0.33000000000000007,eV,,,,,,,
Zn(InSe$_{2}$)$_{2}$,0.9929000000000001,eV,,,,,,,
Eu(CdP)$_{2}$,0.0,eV,,,,,,,
Mn$_{2}$SnW,0.0,eV,,,,,,,
InFe$_{2}$CuSe$_{4}$,0.0,eV,,,,,,,
FeCu$_{2}$SnSe$_{4}$,0.0,eV,,,,,,,
Nb$_{3}$FeS$_{6}$,0.0,eV,,,,,,,
Gd(SiAu)$_{2}$,6.00000000000378E-4,eV,,,,,,,
YNiSn,0.0,eV,,,,,,,
Y(CuO$_{2}$)$_{2}$,0.0,eV,,,,,,,
NiP$_{2}$,0.0,eV,,,,,,,
CeZnSbO,0.0,eV,,,,,,,
LaTiAgO$_{4}$,1.4649999999999999,eV,,,,,,,
YbCoB$_{4}$,0.0,eV,,,,,,,
Ce$_{3}$(CuGe)$_{4}$,9.999999999976694E-5,eV,,,,,,,
Cr$_{2}$CuTe$_{4}$,0.0,eV,,,,,,,
OsF$_{6}$,0.0,eV,,,,,,,
Dy$_{2}$(Ga$_{3}$Ru)$_{3}$,0.0,eV,,,,,,,
CsNO$_{3}$,3.0696,eV,,,,,,,
Tb$_{2}$CoGe$_{2}$,0.0012999999999996348,eV,,,,,,,
ScIr$_{2}$,0.0,eV,,,,,,,
Sc$_{2}$PbS$_{4}$,1.6635,eV,,,,,,,
Co$_{2}$N,0.0,eV,,,,,,,
Pb$_{3}$O$_{4}$,1.133,eV,,,,,,,
K$_{4}$SrU$_{3}$O$_{12}$,2.0705,eV,,,,,,,
TaNiGe,0.0,eV,,,,,,,
HfNbP,0.0,eV,,,,,,,
U(NiP)$_{2}$,0.0,eV,,,,,,,
ErGe,0.0,eV,,,,,,,
CaFe$_{4}$As$_{3}$,0.0032000000000005357,eV,,,,,,,
Zr$_{2}$Se,0.0,eV,,,,,,,
Tb$_{3}$(CoGe$_{2}$)$_{2}$,0.0,eV,,,,,,,
InPd$_{2}$,0.0,eV,,,,,,,
FeCu$_{2}$SnS$_{4}$,0.0,eV,,,,,,,
TbCo$_{2}$,0.0,eV,,,,,,,
Eu(SiAg)$_{2}$,0.0,eV,,,,,,,
GdInPt$_{2}$,0.010899999999999466,eV,,,,,,,
Pu(SiRh)$_{2}$,0.002400000000001512,eV,,,,,,,
Co$_{2}$NiS$_{4}$,0.0,eV,,,,,,,
YbAg,0.0,eV,,,,,,,
InAgO$_{2}$,0.21189999999999998,eV,,,,,,,
InAg(PS$_{3}$)$_{2}$,1.1379000000000001,eV,,,,,,,
TiGaPt,0.0,eV,,,,,,,
HoRh$_{3}$C,0.0,eV,,,,,,,
AgAsPbS$_{3}$,1.3834,eV,,,,,,,
NdCu$_{3}$(RuO$_{3}$)$_{4}$,0.0,eV,,,,,,,
UFeS$_{3}$,0.0,eV,,,,,,,
HoB$_{2}$,0.0,eV,,,,,,,
HoGeRh,0.0,eV,,,,,,,
Pr$_{7}$O$_{12}$,0.029100000000000126,eV,,,,,,,
CeC,0.0,eV,,,,,,,
MnInCu$_{2}$,0.0,eV,,,,,,,
Ce$_{2}$Sb,0.0,eV,,,,,,,
Ba(MnSn)$_{2}$,0.0,eV,,,,,,,
TbAg,0.0,eV,,,,,,,
DyInCu$_{2}$,0.0,eV,,,,,,,
In$_{2}$Pt,0.0,eV,,,,,,,
CeCuSn,0.0,eV,,,,,,,
TbInCu$_{2}$,0.0,eV,,,,,,,
BaIn$_{4}$,0.0,eV,,,,,,,
CuSeO$_{3}$,0.2102000000000004,eV,,,,,,,
ZrSnPd,0.02859999999999996,eV,,,,,,,
TbCdF$_{6}$,0.0,eV,,,,,,,
InSe,0.5364999999999998,eV,,,,,,,
Te$_{2}$W,0.0,eV,,,,,,,
LiPPbO$_{4}$,3.5252,eV,,,,,,,
NdInCu,0.0,eV,,,,,,,
DyFeSi,0.0,eV,,,,,,,
SmCu$_{5}$,0.020999999999999908,eV,,,,,,,
V$_{3}$Se$_{4}$,0.0,eV,,,,,,,
ScFeSi,0.0,eV,,,,,,,
Mn$_{2}$Co$_{3}$Ge,0.009199999999999875,eV,,,,,,,
Ni$_{8}$Ge$_{2}$B$_{3}$,0.0,eV,,,,,,,
YIn,0.0,eV,,,,,,,
BaPrO$_{3}$,0.0,eV,,,,,,,
EuAgSb,0.0,eV,,,,,,,
Th$_{3}$Co$_{3}$Sb$_{4}$,0.0,eV,,,,,,,
TaNiB$_{2}$,0.0,eV,,,,,,,
NaPt$_{2}$,0.0,eV,,,,,,,
GdAl$_{7}$Au$_{3}$,0.06319999999999926,eV,,,,,,,
YPd$_{2}$Pb,0.0,eV,,,,,,,
Ce$_{2}$Ni$_{2}$Sn,0.0,eV,,,,,,,
LuCoC,0.0,eV,,,,,,,
LiCu$_{2}$P,0.0,eV,,,,,,,
CaIn$_{2}$Pd,0.0,eV,,,,,,,
TbInAu,0.0,eV,,,,,,,
Ba$_{2}$NdCu$_{3}$O$_{7}$,0.0,eV,,,,,,,
Sr$_{6}$Li$_{23}$,0.013499999999999956,eV,,,,,,,
RbSr$_{2}$Nb$_{3}$O$_{10}$,1.4646,eV,,,,,,,
Mo$_{6}$PbSe$_{8}$,0.0,eV,,,,,,,
NbSiPd,0.0,eV,,,,,,,
DyInIr,0.0,eV,,,,,,,
CeZrF$_{7}$,0.3047000000000004,eV,,,,,,,
TiInCu$_{2}$,0.0,eV,,,,,,,
Sr$_{2}$LuIrO$_{6}$,0,eV,,,,,,,
La$_{3}$(GePd)$_{4}$,0.0051000000000005485,eV,,,,,,,
Ag$_{3}$Sb,0.0,eV,,,,,,,
MnInNi$_{2}$,0.0,eV,,,,,,,
Co$_{5}$Ge$_{7}$,0.0,eV,,,,,,,
HfPbO$_{3}$,2.7161,eV,,,,,,,
Ca$_{2}$Sn,0.056400000000000006,eV,,,,,,,
InCuS$_{2}$,0.007699999999999818,eV,,,,,,,
Sb$_{8}$(PbS$_{5}$)$_{3}$,1.597,eV,,,,,,,
BaFe$_{2}$S$_{3}$,0.0,eV,,,,,,,
CeSiCu,0.0,eV,,,,,,,
EuSn$_{2}$Ir,0.009699999999999598,eV,,,,,,,
Ta$_{11}$(NiSe$_{4}$)$_{2}$,0.0,eV,,,,,,,
Co$_{9}$Se$_{8}$,0.0,eV,,,,,,,
CoSi,0.0,eV,,,,,,,
Pb(CO$_{2}$)$_{2}$,2.7868000000000004,eV,,,,,,,
Mn$_{5}$C$_{2}$,0.0,eV,,,,,,,
UF$_{6}$,2.7932,eV,,,,,,,
P$_{2}$Pb$_{3}$O$_{8}$,3.3518,eV,,,,,,,
FeSn$_{2}$,0.0,eV,,,,,,,
UFeC$_{2}$,0.0,eV,,,,,,,
TbGeIr,0.0,eV,,,,,,,
K$_{2}$PbO$_{3}$,1.2096,eV,,,,,,,
CoBW,0.0,eV,,,,,,,
La(MnGe)$_{2}$,0.0,eV,,,,,,,
CeCuSn,8.999999999996788E-4,eV,,,,,,,
CoN$_{3}$,0.0,eV,,,,,,,
Eu$_{2}$Si$_{3}$Pd,0.005700000000000038,eV,,,,,,,
CaIn$_{2}$O$_{4}$,2.0006,eV,,,,,,,
ThGa$_{4}$Co,0.0,eV,,,,,,,
Nd$_{2}$Ge$_{2}$Ir,0.0018000000000002458,eV,,,,,,,
TiCoGe,0.0,eV,,,,,,,
KCd(NO$_{2}$)$_{3}$,0.0,eV,,,,,,,
Pu(MnSi)$_{2}$,0.0,eV,,,,,,,
Sr$_{2}$Nb$_{5}$O$_{9}$,0.0,eV,,,,,,,
Sr(Sb$_{3}$Ru)$_{4}$,0.0,eV,,,,,,,
K$_{2}$FeCo(CN)$_{6}$,0.0,eV,,,,,,,
NaN$_{3}$,0.0,eV,,,,,,,
YbSnPt,0.0,eV,,,,,,,
HgO$_{2}$,0.11099999999999999,eV,,,,,,,
BaIn$_{2}$Ir,0.0,eV,,,,,,,
TiNiSn,0.0,eV,,,,,,,
EuPAu,0.017900000000000027,eV,,,,,,,
SmMnB$_{4}$,0.0,eV,,,,,,,
ThNiSn,0.27139999999999986,eV,,,,,,,
Fe$_{2}$Si,0.0,eV,,,,,,,
Eu(PRu)$_{2}$,0.0,eV,,,,,,,
PuSn$_{3}$,0.0,eV,,,,,,,
VGaCo$_{2}$,0.0,eV,,,,,,,
TlInTe$_{2}$,0.5208999999999993,eV,,,,,,,
MnTePd,0.0,eV,,,,,,,
AlFe$_{3}$C,0.0,eV,,,,,,,
TmGeRh,0.0,eV,,,,,,,
Pb$_{2}$Au,0.0,eV,,,,,,,
EuPt$_{2}$,0.006999999999999673,eV,,,,,,,
Te$_{2}$Rh,0.0,eV,,,,,,,
LuSiRh,0.0,eV,,,,,,,
Cr$_{2}$CuS$_{4}$,0.0,eV,,,,,,,
Na$_{3}$In$_{2}$(AsO$_{4}$)$_{3}$,2.2536,eV,,,,,,,
Dy$_{3}$(AgSn)$_{4}$,0.019599999999999618,eV,,,,,,,
KCeSiS$_{4}$,0.13089999999999957,eV,,,,,,,
SmSb,0.0,eV,,,,,,,
Ce$_{2}$MgCu$_{2}$,0.004700000000000593,eV,,,,,,,
InCuSe$_{2}$,0.0045999999999999375,eV,,,,,,,
In$_{2}$Ir,0.0,eV,,,,,,,
U$_{2}$Ni$_{2}$Sn,0.0,eV,,,,,,,
U$_{2}$Ti$_{3}$Si$_{4}$,0.0,eV,,,,,,,
TbGeRh,0.0,eV,,,,,,,
NiS$_{2}$,0.0,eV,,,,,,,
SnP$_{2}$PbO$_{8}$,3.7883,eV,,,,,,,
KNb$_{8}$O$_{14}$,0.0,eV,,,,,,,
Er$_{15}$C$_{19}$,0.0,eV,,,,,,,
Eu$_{2}$Ge$_{2}$O$_{7}$,0.0,eV,,,,,,,
ZrCo,0.0,eV,,,,,,,
DySi$_{3}$Rh$_{5}$,0.0,eV,,,,,,,
AgF$_{2}$,0.0,eV,,,,,,,
Ba$_{2}$In$_{2}$S$_{5}$,1.9866000000000001,eV,,,,,,,
In$_{5}$S$_{4}$,0.0,eV,,,,,,,
Cl$_{2}$,2.5423,eV,,,,,,,
BiI$_{3}$,2.5339,eV,,,,,,,
RuCl$_{3}$,0.0,eV,,,,,,,
NaCl,3.9718999999999998,eV,,,,,,,
MoCl$_{3}$,0.15079999999999982,eV,,,,,,,
Pr$_{2}$I$_{5}$,0.13020000000000032,eV,,,,,,,
HgCl$_{2}$,2.8686,eV,,,,,,,
Bi$_{2}$S$_{3}$,1.3617999999999997,eV,,,,,,,
CrCl$_{2}$,0.7019000000000002,eV,,,,,,,
TlI,2.1452,eV,,,,,,,
HgI,1.6513,eV,,,,,,,
Li$_{2}$Se,2.9746,eV,,,,,,,
LaI,0.0,eV,,,,,,,
NiBi,0.0,eV,,,,,,,
NaCl,5.003299999999999,eV,,,,,,,
CuI,1.5721999999999996,eV,,,,,,,
Bi$_{2}$Pt,0.0,eV,,,,,,,
CsCl,4.9881,eV,,,,,,,
HoBi,0.0,eV,,,,,,,
RbBr,4.1927,eV,,,,,,,
BiRh,0.0,eV,,,,,,,
ClO$_{3}$,1.3649,eV,,,,,,,
InBr,1.2574999999999998,eV,,,,,,,
ZrCl$_{3}$,0.0,eV,,,,,,,
SbCl$_{3}$,3.7419,eV,,,,,,,
SmBi,0.0,eV,,,,,,,
PBr$_{5}$,1.6183,eV,,,,,,,
TlBr,1.9877,eV,,,,,,,
CsI$_{3}$,1.8986,eV,,,,,,,
VCl$_{2}$,1.2546000000000004,eV,,,,,,,
MnBi,0.0,eV,,,,,,,
PuBi,0.007600000000000051,eV,,,,,,,
PuSe,0.0,eV,,,,,,,
FeBr$_{2}$,0.5376999999999998,eV,,,,,,,
CdCl$_{2}$,3.5214,eV,,,,,,,
YbBr$_{2}$,4.4989,eV,,,,,,,
PbI$_{2}$,2.4224,eV,,,,,,,
XeF$_{2}$,2.6861999999999995,eV,,,,,,,
EuCl$_{2}$,1.2143999999999995,eV,,,,,,,
CaBr$_{2}$,4.5304,eV,,,,,,,
ZnCl$_{2}$,4.04,eV,,,,,,,
CeAl$_{4}$,0.0,eV,,,,,,,
Bi$_{2}$O$_{3}$,0.0,eV,,,,,,,
RuBr$_{3}$,0.0,eV,,,,,,,
PbI$_{2}$,2.3702,eV,,,,,,,
AgI,1.3958999999999997,eV,,,,,,,
CuI,1.1363000000000003,eV,,,,,,,
LaCl$_{3}$,3.6454,eV,,,,,,,
HgCl,2.7243000000000004,eV,,,,,,,
KI,3.8512999999999997,eV,,,,,,,
LiI,4.2306,eV,,,,,,,
ZrRh$_{3}$,0.0,eV,,,,,,,
NdRh$_{2}$,0.0,eV,,,,,,,
KI,3.24,eV,,,,,,,
LiBi,0.0,eV,,,,,,,
RbI,3.777,eV,,,,,,,
CaCl$_{2}$,5.3548,eV,,,,,,,
LiCl,6.25,eV,,,,,,,
CsBr,4.2433,eV,,,,,,,
DyBi,0.0,eV,,,,,,,
BiCl$_{3}$,3.3547,eV,,,,,,,
ZnCl$_{2}$,4.0533,eV,,,,,,,
Si$_{2}$Ni,0.0,eV,,,,,,,
NpBi,0.0,eV,,,,,,,
CuBr,0.4859,eV,,,,,,,
CuCl,0.5611999999999999,eV,,,,,,,
AgI,0.0,eV,,,,,,,
NaBr,4.0899,eV,,,,,,,
CuBr,0.9948999999999999,eV,,,,,,,
PuCl$_{3}$,0.0,eV,,,,,,,
AgI,0.7690000000000001,eV,,,,,,,
La$_{2}$O$_{3}$,3.5319000000000003,eV,,,,,,,
TbBi,0.0,eV,,,,,,,
AgCl,0.9539000000000002,eV,,,,,,,
BiPt,0.0,eV,,,,,,,
NaBi,0.0,eV,,,,,,,
AgI,1.3678000000000001,eV,,,,,,,
LaBi,0.0,eV,,,,,,,
MnSe,0.0484,eV,,,,,,,
Rb$_{4}$CdCl$_{6}$,3.9341,eV,,,,,,,
KInBr$_{4}$,2.8234,eV,,,,,,,
K$_{2}$PtCl$_{4}$,1.7942,eV,,,,,,,
CsBrF,2.4765,eV,,,,,,,
Ca$_{2}$NCl,2.3688,eV,,,,,,,
Na$_{4}$I$_{2}$O,2.2131000000000003,eV,,,,,,,
BiClO,2.5661,eV,,,,,,,
Al$_{3}$Ir,0.0,eV,,,,,,,
CaCuBi,0.0,eV,,,,,,,
BaBiO$_{3}$,0.0,eV,,,,,,,
TeRhCl,0.7782,eV,,,,,,,
K$_{2}$ReCl$_{6}$,1.0776,eV,,,,,,,
CaNi$_{2}$,0.0,eV,,,,,,,
CsNiCl$_{3}$,0.8181999999999998,eV,,,,,,,
BaIF,4.0263,eV,,,,,,,
CeClO,0.0,eV,,,,,,,
YbCuBi,0.0,eV,,,,,,,
LiIO$_{3}$,3.6522000000000006,eV,,,,,,,
K$_{2}$PdCl$_{4}$,1.4172,eV,,,,,,,
SrClF,5.9367,eV,,,,,,,
KBrO$_{3}$,3.8455000000000004,eV,,,,,,,
AgClO$_{2}$,0.9478000000000002,eV,,,,,,,
Ni$_{3}$P,0.0,eV,,,,,,,
Li$_{2}$ZnCl$_{4}$,4.1422,eV,,,,,,,
CsTiBr$_{3}$,0.0,eV,,,,,,,
K$_{2}$TeBr$_{6}$,2.3386,eV,,,,,,,
PbClF,3.4652,eV,,,,,,,
BiTeI,1.2741999999999996,eV,,,,,,,
C(ClF)$_{2}$,5.706799999999999,eV,,,,,,,
Li$_{2}$FeBr$_{4}$,0.5386000000000002,eV,,,,,,,
NaClO$_{4}$,5.4553,eV,,,,,,,
PbIF,2.0757,eV,,,,,,,
NdC$_{2}$,0.0,eV,,,,,,,
SbSBr,1.7647999999999997,eV,,,,,,,
Tb$_{6}$FeBi$_{2}$,0.007500000000000284,eV,,,,,,,
NaMnBi,0.0,eV,,,,,,,
Rb$_{2}$TeCl$_{6}$,2.6399999999999997,eV,,,,,,,
Rb$_{2}$(NbCl$_{3}$)$_{3}$,1.0958,eV,,,,,,,
CsVCl$_{3}$,0.4834999999999998,eV,,,,,,,
Rb$_{2}$MnCl$_{4}$,1.2907,eV,,,,,,,
GaBiO$_{3}$,1.2258999999999993,eV,,,,,,,
Li$_{2}$CoCl$_{4}$,0.07899999999999996,eV,,,,,,,
TlIO$_{3}$,2.7632999999999996,eV,,,,,,,
CuBiS$_{2}$,0.4640000000000004,eV,,,,,,,
LiAlCl$_{4}$,5.5616,eV,,,,,,,
NaBiO$_{2}$,1.1350000000000002,eV,,,,,,,
BiIO,1.4833000000000003,eV,,,,,,,
CsGeCl$_{3}$,2.6417,eV,,,,,,,
NaIO$_{3}$,3.6962,eV,,,,,,,
CsICl$_{2}$,2.2034000000000002,eV,,,,,,,
CsVI$_{3}$,0.5972999999999997,eV,,,,,,,
TiClO,0.0,eV,,,,,,,
AgClO$_{4}$,2.6807,eV,,,,,,,
LiIO$_{3}$,3.6546000000000003,eV,,,,,,,
Ag$_{3}$SI,0.5388000000000002,eV,,,,,,,
SbSeI,1.3775999999999997,eV,,,,,,,
PbBrCl,3.4375999999999998,eV,,,,,,,
CrSBr,0.18159999999999998,eV,,,,,,,
Hg$_{3}$(ClO)$_{2}$,0.29939999999999994,eV,,,,,,,
SbO$_{2}$,1.8829999999999991,eV,,,,,,,
TiBrO,0.0,eV,,,,,,,
Ce$_{2}$BiO$_{2}$,0.0,eV,,,,,,,
CsMgCl$_{3}$,5.126099999999999,eV,,,,,,,
Bi$_{4}$Te$_{7}$Pb,0.42210000000000036,eV,,,,,,,
SbSI,0.6814,eV,,,,,,,
PbBrF,2.617,eV,,,,,,,
Ca$_{2}$BrN,2.4257999999999997,eV,,,,,,,
NiP$_{3}$,0.0,eV,,,,,,,
RbClO$_{3}$,5.3151,eV,,,,,,,
Bi$_{2}$Pd$_{3}$S$_{2}$,0.0,eV,,,,,,,
U(ClO)$_{2}$,1.7154,eV,,,,,,,
Cs$_{3}$Mo$_{2}$Br$_{9}$,1.0076,eV,,,,,,,
CsCu$_{2}$Br$_{3}$,1.6382999999999999,eV,,,,,,,
BiSbO$_{4}$,2.4146,eV,,,,,,,
UNCl,0.0,eV,,,,,,,
AsRh$_{2}$,0.0,eV,,,,,,,
BiSeI,1.5745000000000005,eV,,,,,,,
K$_{2}$ReBr$_{6}$,0.9700000000000001,eV,,,,,,,
KClO$_{3}$,5.4604,eV,,,,,,,
LaBrO,3.7256,eV,,,,,,,
SrBrF,5.0003,eV,,,,,,,
LaClO,4.069,eV,,,,,,,
CsAuCl$_{3}$,0.0,eV,,,,,,,
Cs$_{3}$Sb$_{2}$I$_{9}$,1.8679000000000001,eV,,,,,,,
DyZn,0.0,eV,,,,,,,
CsCuCl$_{3}$,0.45119999999999993,eV,,,,,,,
Sr$_{2}$NCl,1.9398000000000004,eV,,,,,,,
SrZnCl$_{4}$,4.298,eV,,,,,,,
K$_{2}$SeBr$_{6}$,1.688,eV,,,,,,,
CsPbCl$_{3}$,2.1891999999999996,eV,,,,,,,
CsVBr$_{3}$,0.6528,eV,,,,,,,
Er$_{6}$MnBi$_{2}$,0.0,eV,,,,,,,
Ca$_{2}$PI,1.7000000000000002,eV,,,,,,,
SbSI,1.6354000000000002,eV,,,,,,,
RbPb$_{2}$Br$_{5}$,3.0418000000000003,eV,,,,,,,
BNCl$_{2}$,2.8083,eV,,,,,,,
SrIF,4.3111999999999995,eV,,,,,,,
Ho$_{6}$MnBi$_{2}$,0.0,eV,,,,,,,