formula,Property Band Gap,Property Band Gap units,Property Band gap,Property Band gap units,Temperature (Property Band gap),Temperature (Property Band gap) units,Property Color,Temperature (Property Color),Temperature (Property Color) units
Bi$_{2}$Te$_{3}$,,,0.153,eV,300,K,,,
Mg$_{2}$Ge,,,0.567,eV,77,K,,,
CoSi,,,0.045,eV,300,K,,,
NaBr,,,7.025,eV,77,K,,,
Ca$_{2}$Sn,,,0.9,eV,300,K,,,
As$_{2}$S$_{3}$,,,2.57,eV,90,K,,,
ZnO,,,3.35,eV,300,K,,,
Cu$_{2}$Se,,,1.23,eV,293,K,,,
GeTe,,,0.7,eV,295,K,,,
CaF$_{2}$,,,10,eV,300,K,,,
DyN,,,2.1,eV,300,K,,,
Sb$_{2}$Se$_{3}$,,,1.15,eV,300,K,,,
InAs,,,0.404,eV,80,K,Dark Gray,80,K
CdI$_{2}$,,,3.2,eV,300,K,,,
La$_{2}$S$_{3}$,,,1.32,eV,300,K,Red-Yellow,300,K
Mg$_{3}$Sb$_{2}$,,,0.82,eV,,,,,
Cu$_{2}$Te,,,1.15,eV,80,K,,,
PbTe,,,0.19,eV,,,,,
CdSb,,,0.465,eV,300,K,,,
CaO,,,6.1,eV,300,K,White,300,K
As$_{2}$S$_{3}$,,,2,eV,300,K,,,
Mg$_{2}$Ge,,,0.57,eV,77,K,,,
CaS,,,6.0$\pm$0.2,eV,300,K,,,
Eu$_{3}$As$_{2}$,,,0.6,eV,300,K,,,
AgBr,,,2.676,eV,77,K,,,
ZnTe,,,2.35,eV,77,K,,,
ZrSe$_{3}$,,,1.25,eV,300,K,Dark Gray,300,K
Cr$_{3}$Se$_{4}$,,,0.015,eV,300,K,,,
HgS,,,0.7,eV,300,K,,,
Cr$_{2}$O$_{3}$,,,1.68,eV,300,K,,,
GeSe$_{2}$,,,2.69,eV,,,Yellow-Orange,,
GeAs$_{2}$,,,1$\pm$0.1,eV,300,K,,,
LaB$_{6}$,,,4.1,eV,300,K,,,
MgO,,,7.77,eV,295,K,,,
As$_{2}$S$_{3}$,,,2.8,eV,300,K,,,
CdSb,,,0.585,eV,78,K,,,
As$_{2}$S$_{3}$,,,2.32,eV,300,K,,,
Ag$_{2}$Te,,,0.28,eV,300,K,,,
As$_{2}$Se$_{3}$,,,1.1,eV,300,K,,,
NaI,,,5.8,eV,80,K,,,
CdAs$_{2}$,,,1,eV,297,K,,,
InSb,,,0.234,eV,4.2,K,,,
GeAs,,,0.65$\pm$0.05,eV,300,K,,,
CaO,,,7.03,eV,300,K,,,
GeS,,,1.58,eV,300,K,,,
AlAs,,,2.205,eV,145,K,,,
Bi$_{2}$Te$_{3}$,,,0.145,eV,300,K,,,
As$_{4}$S$_{4}$,,,2.4,eV,300,K,,,
SmSe,,,0.46,eV,300,K,,,
CdO,,,2.3,eV,300,K,,,
Cu$_{2}$S,,,1.05,eV,300,K,,,
SnCl$_{2}$,,,3.9,eV,300,K,,,
RbI,,,6.37,eV,10,K,,,
GeTe$_{2}$,,,0.3,eV,293,K,,,
ZrC,,,0.6,eV,293,K,,,
FeI$_{2}$,,,5.15,eV,300,K,,,
ScN,,,2.6,eV,,,,,
PrO,,,0.55,eV,873,K,,,
MgO,,,7.69,eV,295,K,,,
C,,,5.493,eV,90,K,,,
Cu$_{2}$O,,,2.59,eV,293,K,,,
HgI$_{2}$,,,2.13,eV,298,K,Red,298,K
AlAs,,,2.2,eV,300,K,,,
Ce$_{2}$Se$_{3}$,,,1.62,eV,300,K,,,
Eu$_{2}$O$_{3}$,,,1.84,eV,513,K,,,
RbCl,,,8.5,eV,10,K,,,
PbBr$_{2}$,,,3.23,eV,300,K,,,
ZnTe,,,2.29,eV,110,K,,,
HoN,,,1.79$\pm$0.9,eV,300,K,,,
As$_{2}$O$_{3}$,,,4,eV,300,K,,,
SnBr$_{2}$,,,3.5,eV,300,K,,,
Rb$_{3}$Sb,,,1.7$\pm$0.1,eV,300,K,,,
KI,,,6.25,eV,55,K,,,
SnO$_{2}$,,,4.1,eV,300,K,,,
Pr$_{2}$Se$_{3}$,,,1.9,eV,300,K,,,
Mg$_{2}$Sn,,,0.36,eV,,,,,
PbTe,,,0.185,eV,,,White,,
MnS,,,6.2,eV,300,K,,,
SnSe,,,1.2,eV,300,K,Gray,300,K
MoO$_{3}$,,,3.66,eV,300,K,,,
Ag$_{2}$Te,,,0.025,eV,300,K,,,
TlBr,,,3.073,eV,80,K,,,
NiTe,,,0.23,eV,300,K,,,
EuS,,,3.1,eV,300,K,,,
CeN,,,0.7,eV,300,K,Bronze,300,K
Dy$_{2}$S$_{3}$,,,2.91,eV,300,K,,,
BaI,,,,,,,,,
BiI$_{3}$,,,2.52,eV,,,,,
EuTe,,,2,eV,300,K,,,
MgTe,,,3.6,eV,70,K,,,
MoO$_{3}$,,,3.7,eV,300,K,,,
Ce$_{2}$Te$_{3}$,,,1.4$\pm$0.2,eV,293,K,,,
Sm$_{2}$O$_{3}$,,,2.27,eV,510,K,,,
As$_{2}$Se$_{3}$,,,1.7,eV,300,K,,,
Si,,,1.12,eV,291,K,,,
As$_{2}$S$_{5}$,,,2.62,eV,80,K,,,
As$_{2}$S$_{3}$,,,2.355,eV,403,K,,,
AgCl,,,3.246,eV,4.2,K,,,
Te,,,0.33,eV,300,K,,,
Bi$_{0.85}$Sb$_{0.15}$,,,0.01,eV,300,K,,,
CdSb,,,0.7,eV,300,K,,,
Bi$_{0.97}$Sb$_{0.03}$,,,0.022,eV,80,K,,,
AlB,,,0.74,eV,400,K,Brown,400,K
Nd$_{4}$Te$_{7}$,,,0.38,eV,300,K,,,
PbSe,,,0.29,eV,300,K,,,
Al$_{2}$S$_{3}$,,,4.1,eV,300,K,White,300,K
MnF$_{2}$,,,10.24,eV,77,K,,,
SnBr$_{2}$,,,3.4,eV,300,K,,,
Ag$_{2}$Te,,,0.85,eV,300,K,,,
Sb$_{2}$Se$_{3}$,,,1.2,eV,300,K,,,
Ag$_{2}$Se,,,0.07,eV,,,,,
TiSe$_{2}$,,,1.55,eV,300,K,,,
Bi$_{0.91}$Sb$_{0.09}$,,,0.01,eV,300,K,,,
GaSb,,,0.813,eV,4.2,K,,,
VO,,,0.3,eV,,,,,
LiF,,,12.6,eV,,,,,
BAs,,,3.56,eV,,,,,
Sb$_{2}$S$_{3}$,,,1.7,eV,300,K,,,
GeS,,,1.77,eV,77,K,,,
CdI$_{2}$,,,3.26,eV,300,K,,,
V$_{4}$O$_{7}$,,,0.8,eV,200,K,,,
As$_{2}$S$_{3}$,,,2.21,eV,300,K,,,
PbBr$_{2}$,,,3.5,eV,77,K,,,
GaSe,,,2.2,eV,,,,,
CdTe,,,1.58,eV,300,K,,,
HgTe,,,0.175,eV,300,K,,,
K$_{2}$S,,,2.1,eV,300,K,,,
Te,,,0.335,eV,4.2,K,,,
ZrS$_{3}$,,,2.17,eV,300,K,Copper-Red,300,K
Se,,,1.71,eV,300,K,,,
UO$_{2}$,,,1.3,eV,100,K,,,
AlAs,,,2.215,eV,145,K,,,
KBr,,,6.75,eV,55,K,,,
GaAs,,,1.09,eV,973,K,,,
Se,,,1.72,eV,300,K,,,
KBr,,,7.215,eV,78,K,,,
Mg$_{2}$Ge,,,0.63,eV,90,K,,,
Fe$_{2}$Te$_{3}$,,,0.6,eV,300,K,,,
MoO$_{3}$,,,2.96,eV,300,K,,,
K$_{3}$Sb,,,1.1,eV,300,K,,,
Bi$_{2}$O$_{3}$,,,2.58,eV,300,K,,,
GaS,,,2.5,eV,300,K,,,
Ag$_{2}$Se,,,0.13,eV,80,K,,,
Zn$_{4}$Sb$_{3}$,,,1.2,eV,300,K,,,
GaSb,,,0.81,eV,4,K,,,
PdO,,,1.5,eV,300,K,,,
HgBr$_{2}$,,,3.59,eV,300,K,,,
Mg$_{2}$Ge,,,1.78,eV,77,K,,,
GaAs,,,1.253,eV,673,K,,,
LiF,,,11.7,eV,300,K,,,
PtSb$_{2}$,,,0.07,eV,,,,,
PtAs$_{2}$,,,0.55,eV,300,K,,,
Eu$_{2}$O$_{3}$,,,1.7,eV,300,K,,,
Te,,,0.35,eV,,,,,
CdTe,,,1.595,eV,6,K,,,
SnO$_{2}$,,,3.597,eV,1.8,K,,,
NiS,,,0.12,eV,264,K,,,
La$_{2}$Se$_{3}$,,,1.97,eV,293,K,,,
Cr$_{2}$S$_{3}$,,,0.9,eV,300,K,,,
ZnS,,,3.704,eV,300,K,,,
GeO$_{2}$,,,5.56,eV,300,K,,,
MnF$_{2}$,,,10.2,eV,300,K,,,
PbSe,,,0.27,eV,300,K,,,
Sb$_{2}$O$_{3}$,,,3.31,eV,300,K,,,
ThO$_{2}$,,,3.3,eV,300,K,Red,300,K
In$_{2}$Se,,,0.65,eV,300,K,,,
GaAs,,,1.511,eV,90,K,,,
ZnSb,,,0.99,eV,300,K,,,
HfS$_{3}$,,,2.85,eV,300,K,Ocher,300,K
HgSe,,,0.1,eV,300,K,,,
Bi,,,0.006,eV,77.4,K,,,
Lu$_{2}$O$_{3}$,,,3.94,eV,733,K,,,
Sb$_{0.71}$As$_{0.29}$,,,0.125,eV,273,K,,,
Na$_{3}$Sb,,,1.17,eV,250,K,,,
As$_{2}$S$_{3}$,,,2.2,eV,,,,,
V$_{2}$O$_{5}$,,,2.3,eV,300,K,,,
Bi$_{0.9}$Sb$_{0.1}$,,,0.015,eV,300,K,,,
HgI$_{2}$,,,2.795,eV,204,K,Yellow,204,K
Cs$_{2}$Te,,,3.5,eV,300,K,,,
CeO$_{2}$,,,2.68,eV,513,K,,,
PbS,,,0.285,eV,300,K,,,
CoTe$_{1.88}$,,,0.2,eV,300,K,,,
Cs$_{2}$S,,,,,,,,,
TiTe$_{2}$,,,1,eV,300,K,,,
ZnSb,,,0.514,eV,300,K,,,
RbCl,,,8.3,eV,55,K,,,
PbSe,,,0.176,eV,77,K,Gray,77,K
As$_{2}$S$_{5}$,,,2.21,eV,300,K,,,
Mg$_{3}$P$_{2}$,,,1.4,eV,300,K,,,
MoTe$_{2}$,,,1.02,eV,,,,,
CaSe,,,4.87,eV,77,K,Yellow,77,K
LaB$_{6}$,,,4.9,eV,300,K,,,
TlS,,,0.98,eV,300,K,,,
EuS,,,1.645,eV,300,K,,,
BeO,,,5.2,eV,300,K,,,
KBr,,,7.3,eV,20,K,,,
OsSb$_{2}$,,,0.2,eV,300,K,,,
In$_{2}$Te$_{3}$,,,0.85,eV,300,K,,,
Mg$_{2}$Si,,,0.66,eV,90,K,,,
MnO,,,2.6,eV,300,K,,,
AlAs,,,2.223,eV,77,K,,,
Mg$_{2}$Si,,,0.77,eV,,,,,
Cs$_{3}$Bi,,,0.55,eV,300,K,,,
GaSe,,,2.109,eV,77,K,,,
ReO$_{3}$,,,2.3,eV,300,K,Red,300,K
PbTe,,,0.31,eV,300,K,,,
GeS,,,1.59,eV,300,K,,,
InSb,,,0.235,eV,4.2,K,,,
Ta$_{2}$O$_{5}$,,,4.6,eV,300,K,,,
AlB,,,0.82,eV,300,K,Blue,300,K
Se,,,1.75,eV,300,K,,,
Sb$_{2}$O$_{3}$,,,4.2,eV,300,K,,,
PbTe,,,0.217,eV,77,K,,,
PbO,,,2.84,eV,300,K,Red,300,K
InSe,,,1.12,eV,300,K,,,
Nb$_{2}$O$_{5}$,,,3.08,eV,300,K,,,
PrO$_{2}$,,,0.66,eV,323,K,,,
B,,,1.47,eV,300,K,,,
Ca$_{2}$Si,,,1.9,eV,300,K,,,
WO$_{3}$,,,2.7,eV,273,K,,,
HgI$_{2}$,,,2.19,eV,300,K,,,
Er$_{3}$Te$_{4}$,,,0.9,eV,300,K,,,
HgTe,,,0.303,eV,1.5,K,,,
GaS,,,2.58,eV,150,K,,,
NiO,,,3.7,eV,300,K,Dark Green,300,K
K$_{2}$Se,,,1.8,eV,300,K,,,
EuSe,,,3.1,eV,300,K,,,
ZnTe,,,2.372,eV,77,K,,,
PbSe,,,0.165,eV,4.2,K,Gray,4.2,K
ZnSb,,,1.11,eV,4.2,K,,,
ZnTe,,,2.385,eV,4.2,K,Red,4.2,K
C,,,5.413,eV,90,K,,,
EuSe,,,1.78,eV,300,K,,,
SrO,,,5.7,eV,300,K,,,
CsBi$_{2}$,,,0.55,eV,300,K,,,
Pb$_{3}$O$_{4}$,,,2.12,eV,300,K,,,
HgI$_{2}$,,,3.045,eV,90,K,Yellow,90,K
InP,,,1.34,eV,300,K,Dark Gray,300,K
Mg$_{2}$Sn,,,0.135,eV,296,K,,,
GaAs,,,1.479,eV,185,K,,,
RbF,,,10.4,eV,80,K,,,
B,,,1.55,eV,300,K,,,
ErSe$_{2}$,,,1.07,eV,300,K,,,
PbO,,,2.76,eV,300,K,Yellow,300,K
Bi$_{0.87}$Sb$_{0.13}$,,,0.018,eV,300,K,,,
Ag$_{2}$Te,,,0.13,eV,300,K,,,
CuI,,,3.047,eV,80,K,,,
SnSe$_{2}$,,,1.3,eV,300,K,,,
SiC,,,3.33,eV,4.2,K,,,
KCl,,,7.8,eV,55,K,,,
Cd$_{3}$As$_{2}$,,,0.425,eV,300,K,Gray,300,K
BiI$_{3}$,,,2.029,eV,20.4,K,,,
Sb$_{2}$S$_{3}$,,,1.72,eV,293.2,K,,,
Nd$_{2}$Se$_{3}$,,,1.7,eV,300,K,,,
RbI,,,6.25,eV,55,K,,,
GeSe,,,1.17,eV,300,K,,,
Pb$_{2}$O$_{3}$,,,1.67,eV,300,K,,,
SbSi,,,1.9,eV,,,,,
V$_{2}$O$_{5}$,,,2.49,eV,,,,,
GaSe,,,2.169,eV,77,K,,,
As$_{2}$S$_{3}$,,,2.43,eV,293,K,,,
HgO,,,2.214,eV,300,K,,,
BN,,,8,eV,300,K,White,300,K
PrF$_{3}$,,,5.3,eV,300,K,,,
WTe$_{2}$,,,0.05,eV,100,K,,,
RhSe$_{3}$,,,0.7,eV,300,K,,,
SnSe$_{2}$,,,1,eV,300,K,,,
CsCl,,,7.8,eV,80,K,,,
Cu$_{2}$O,,,2.17,eV,,,,,
FeAs$_{2}$,,,0.2,eV,300,K,,,
NdB$_{6}$,,,3.4,eV,300,K,,,
OsP$_{2}$,,,1.2,eV,300,K,,,
B,,,1.42,eV,300,K,,,
Ga$_{2}$Te$_{3}$,,,1.08,eV,,,,,
Mg$_{2}$Ge,,,1.64,eV,300,K,,,
PdS,,,0.5,eV,300,K,,,
CsBr,,,6.9,eV,300,K,,,
PtSb$_{2}$,,,0.11,eV,77,K,,,
HgI$_{2}$,,,2.315,eV,403,K,Yellow,403,K
RbBr,,,7.65,eV,80,K,,,
SnTe,,,0.3,eV,300,K,,,
Cd$_{4}$Sb$_{3}$,,,1.25,eV,300,K,,,
PbTe,,,0.29,eV,300,K,,,
Zn$_{3}$As$_{2}$,,,0.86,eV,,,,,
Cd$_{3}$As$_{2}$,,,0.048,eV,4.2,K,,,
SnS$_{2}$,,,2.6,eV,300,K,,,
ZnTe,,,2.23,eV,300,K,,,
MnTe$_{9}$,,,2,eV,300,K,,,
EuSe,,,1.87,eV,300,K,,,
Er$_{2}$Se$_{3}$,,,1.66,eV,300,K,,,
Ce$_{2}$S$_{3}$,,,1.12,eV,300,K,,,
MgCl,,,,,,,,,
PbTe,,,0.19,eV,300,K,,,
CsF,,,10,eV,80,K,,,
BiSb$_{0.15}$,,,0.022,eV,300,K,,,
SiC,,,2.86,eV,300,K,,,
EuSe,,,1.8,eV,300,K,,,
InS,,,1.86,eV,300,K,,,
ThO$_{2}$,,,3.3,eV,300,K,,,
TiS$_{2}$,,,1.24,eV,300,K,,,
PbO,,,3.18,eV,300,K,Red,300,K
Sb$_{2}$S$_{3}$,,,1.63,eV,298,K,,,
PbCl$_{2}$,,,4.1,eV,300,K,,,
RbI,,,5.83,eV,300,K,,,
TlSe,,,0.74,eV,300,K,,,
AgI,,,2.82,eV,300,K,,,
Bi$_{0.9}$Sb$_{0.1}$,,,0.014,eV,300,K,,,
ZnO,,,3.435,eV,1.2,K,,,
Ag$_{2}$S,,,1.03,eV,296,K,,,
CdSe,,,1.83,eV,4.2,K,,,
GaN,,,3.25,eV,300,K,,,
CaTe,,,4.07,eV,70,K,White,70,K
Eu$_{3}$O$_{4}$,,,0.6,eV,300,K,,,
Tb$_{2}$O$_{3}$,,,0.86,eV,510,K,,,
Cu$_{2}$S,,,1.93,eV,293,K,,,
AuCl,,,,,,,,,
PtSe$_{2}$,,,0.1,eV,300,K,,,
Mg$_{2}$Ge,,,0.66,eV,15,K,,,
GaS,,,2.7,eV,77,K,,,
SeTe,,,1.58,eV,300,K,,,
CrSi$_{2}$,,,0.35,eV,300,K,,,
Cd$_{3}$P$_{2}$,,,0.589,eV,4.2,K,Gray,4.2,K
Ag$_{2}$Te,,,0.064,eV,,,,,
Te,,,0.32,eV,300,K,,,
ZnTe,,,2.34,eV,290,K,,,
CdI$_{2}$,,,3.478,eV,77,K,,,
CeF$_{3}$,,,4.85,eV,300,K,,,
BN,,,3.8,eV,300,K,,,
SnTe,,,0.33,eV,,,,,
In$_{2}$Te$_{3}$,,,1.09$\pm$0.05,eV,300,K,,,
Ag$_{2}$Te,,,0.2,eV,600,K,,,
As$_{2}$S$_{3}$,,,2.1,eV,300,K,,,
SnO$_{2}$,,,3.54,eV,300,K,,,
As$_{2}$Se$_{3}$,,,2,eV,,,,,
TaN,,,2.3$\pm$0.3,eV,300,K,,,
TlCl,,,3.56,eV,300,K,,,
GaP,,,2.895,eV,,,,,
I,,,1.3,eV,300,K,,,
Cu$_{2}$S,,,1.8,eV,300,K,,,
Fe$_{2}$Te$_{3}$,,,0.34,eV,,,,,
ZnTe,,,2.255,eV,300,K,,,
LiI,,,6,eV,55,K,,,
LaSb,,,0.8,eV,300,K,,,
RuS$_{2}$,,,1.8,eV,300,K,,,
V$_{2}$O$_{5}$,,,2.34,eV,300,K,,,
Cd$_{3}$As$_{2}$,,,0.14,eV,300,K,,,
PbI$_{2}$,,,2.32,eV,300,K,Yellow,300,K
AlSb,,,1.62,eV,300,K,,,
Mg$_{3}$As$_{2}$,,,1,eV,300,K,,,
WSe$_{2}$,,,1.57,eV,300,K,,,
SnSe$_{2}$,,,1.03,eV,290,K,,,
YbAs,,,1.02,eV,300,K,,,
ZnS,,,3.68,eV,300,K,,,
K$_{3}$Sb,,,1,eV,300,K,,,
EuO,,,1.1,eV,300,K,,,
As$_{2}$S$_{3}$,,,2.062,eV,300,K,,,
Te,,,0.336,eV,77,K,,,
Bi$_{2}$S$_{3}$,,,1.3,eV,293,K,,,
Na$_{2}$S,,,2.4,eV,300,K,,,
As$_{2}$S$_{3}$,,,2.48,eV,300,K,,,
Sb,,,0.1,eV,300,K,Gray,300,K
Hg$_{2}$Cl$_{2}$,,,3.8,eV,10,K,,,
As$_{2}$Se$_{3}$,,,1.81,eV,,,,,
Bi$_{2}$Te$_{3}$,,,0.15,eV,300,K,,,
Cu$_{2}$Se,,,1.29,eV,300,K,,,
Dy$_{2}$O$_{3}$,,,3.08,eV,593,K,,,
TiSe$_{2}$,,,0.69,eV,300,K,,,
TlN$_{3}$,,,3.58,eV,77,K,,,
Mg$_{2}$Ge,,,1.737,eV,195,K,,,
ThO$_{2}$,,,3.5,eV,300,K,White,300,K
Er$_{2}$Te$_{3}$,,,0.9,eV,300,K,,,
SnS$_{2}$,,,2.21,eV,300,K,Yellow,300,K
BeSe,,,3.61,eV,,,,,
PbSe,,,0.275,eV,300,K,,,
As$_{2}$S$_{3}$,,,2.36,eV,300,K,,,
GeTe,,,0.33,eV,,,,,
GeSn,,,0.8,eV,300,K,,,
Mg$_{2}$Si,,,0.78,eV,,,,,
MoS$_{2}$,,,1.83,eV,290,K,,,
SbI$_{3}$,,,2.49,eV,,,Orange,,
Mg$_{2}$Si,,,2.27,eV,300,K,,,
ZnSe,,,2.81,eV,23,K,Yellow,23,K
I,,,1.6,eV,100,K,,,
Rb$_{2}$Te,,,4.5,eV,300,K,,,
In$_{2}$Te$_{3}$,,,1.11,eV,300,K,,,
Ga$_{2}$S$_{3}$,,,3.59,eV,,,,,
HgO,,,1.02,eV,373,K,Yellow,373,K
GeO$_{2}$,,,5.63,eV,300,K,,,
PbSe,,,0.165,eV,77,K,,,
PdSe$_{2}$,,,0.4,eV,300,K,,,
GeS$_{2}$,,,3.71,eV,77,K,Amber,77,K
Bi$_{0.9}$Sb$_{0.1}$,,,0.024,eV,300,K,,,
NbO$_{2}$,,,0.25,eV,300,K,,,
RuAs$_{2}$,,,0.8,eV,300,K,,,
SmS,,,0.22,eV,300,K,,,
CdSc,,,1.714,eV,293,K,,,
AlN,,,5.9,eV,300,K,,,
CsI,,,6.4,eV,80,K,,,
PbBr$_{2}$,,,3.31,eV,300,K,,,
PbSe,,,0.176,eV,77,K,,,
InSe,,,1.293,eV,293,K,,,
NaI,,,5.89,eV,77,K,,,
CaB$_{6}$,,,4.4,eV,,,,,
Ga$_{2}$Te$_{3}$,,,1.13,eV,300,K,,,
SrO,,,1.16,eV,873,K,,,
KCl,,,8.69,eV,77,K,,,
CdS,,,2.582,eV,4.2,K,,,
AgCl,,,3.252,eV,4.2,K,,,
AlAs,,,2.25,eV,,,,,
GeTe,,,0.77,eV,77,K,,,
SnO$_{2}$,,,3.9,eV,300,K,,,
CdF$_{2}$,,,6,eV,300,K,,,
KBr,,,7.13,eV,300,K,,,
GeAs,,,1.45$\pm$0.45,eV,300,K,,,
GaP,,,2.235,eV,,,,,
ZnP$_{2}$,,,1.65,eV,293,K,,,
GaP,,,2.223,eV,300,K,,,
CuCl,,,3.306,eV,80,K,,,
Mg$_{2}$Sn,,,0.185,eV,,,,,
Mg$_{2}$Ge,,,0.57,eV,4.2,K,,,
Cu$_{2}$O,,,2.02,eV,300,K,,,
Al$_{2}$Te$_{3}$,,,2.2,eV,800,K,Yellow,800,K
CrTe,,,0.02,eV,300,K,,,
Si$_{2}$Te$_{3}$,,,2,eV,300,K,Red,300,K
B,,,1.27,eV,300,K,,,
SbSi,,,1.9,eV,300,K,,,
AsBr$_{3}$,,,2.6,eV,300,K,Orange-Red,300,K
FeSc$_{2}$,,,0.77$\pm$0.17,eV,300,K,,,
FeSi$_{2}$,,,0.88,eV,,,,,
CdP$_{2}$,,,1.55,eV,293,K,,,
Al$_{2}$Te$_{3}$,,,2.5,eV,300,K,Yellow,300,K
RbBr,,,7.7,eV,80,K,,,
MnTe$_{2}$,,,0.48,eV,300,K,,,
Mg$_{2}$Ge,,,1.804,eV,10,K,,,
Cu$_{2}$Se,,,1.23,eV,300,K,,,
RbBr,,,7.2,eV,80,K,,,
Cs$_{3}$Sb,,,1.6,eV,300,K,,,
CdP$_{4}$,,,1,eV,300,K,,,
Al$_{2}$O$_{3}$,,,7,eV,300,K,,,
PbO$_{2}$,,,1.5,eV,300,K,,,
In$_{2}$S$_{3}$,,,2.28,eV,,,,,
Cr$_{2}$O$_{3}$,,,1.62,eV,300,K,,,
GdB$_{6}$,,,3.6,eV,300,K,,,
TbF$_{3}$,,,,,,,,,
C,,,7.02,eV,295,K,,,
SnO$_{2}$,,,2.55,eV,300,K,,,
In$_{2}$Te$_{3}$,,,1.026,eV,300,K,,,
Ce$_{2}$Se$_{3}$,,,0.09375,eV,293,K,,,
Sb$_{2}$Se$_{3}$,,,1.4,eV,,,,,
AgCl,,,5.13,eV,300,K,,,
SiSe$_{2}$,,,1.72,eV,300,K,,,
TiO$_{2}$,,,3.3,eV,296,K,,,
Mg$_{2}$Sn,,,0.23,eV,,,,,
In$_{2}$O$_{3}$,,,3.55,eV,300,K,,,
ZrSe$_{2}$,,,2,eV,300,K,,,
Ti$_{2}$O$_{3}$,,,0.02,eV,4.2,K,,,
RuP$_{2}$,,,1,eV,300,K,,,
HgI$_{2}$,,,2.47,eV,,,Orange,,
RhSe$_{2}$,,,0.6,eV,,,,,
SrTe,,,3.73,eV,113,K,,,
As$_{2}$S$_{3}$,,,2.64,eV,90,K,,,
SrS,,,4.8,eV,70,K,,,
Ag$_{2}$Se,,,0.05,eV,,,,,
CdBr$_{2}$,,,4.47,eV,300,K,,,
As$_{2}$S$_{6}$,,,2.35,eV,77,K,,,
P,,,0.35,eV,300,K,,,
BaO,,,4.8,eV,300,K,,,
UO$_{2}$,,,2.18,eV,300,K,,,
HgS,,,0.54,eV,300,K,,,
ZrS$_{2}$,,,1.68,eV,300,K,Violet,300,K
Na$_{3}$Sb,,,1,eV,300,K,,,
Si,,,1.166,eV,4.2,K,,,
Zn$_{3}$P$_{2}$,,,1.15,eV,300,K,,,
Rh$_{2}$S$_{3}$,,,0.8,eV,300,K,,,
AgN$_{3}$,,,3.9,eV,300,K,,,
PrTe$_{2}$,,,1.02,eV,300,K,,,
MgSe,,,5.63,eV,90,K,,,
ZnTe,,,2.37,eV,,,Red,,
MoO$_{3}$,,,2.8,eV,300,K,,,
Cs$_{3}$As,,,0.6,eV,300,K,,,
InSb,,,0.236,eV,4.2,K,,,
PbO,,,2.88,eV,4.2,K,Yellow,4.2,K
PbO,,,2.73,eV,300,K,,,
MnSe,,,1.8,eV,300,K,Brown-Black,300,K
Bi$_{2}$Se$_{3}$,,,0.35,eV,293,K,,,
V$_{2}$O$_{5}$,,,1.95,eV,273,K,,,
SnS,,,1.08,eV,300,K,,,
GaAs,,,1.46,eV,4.2,K,,,
InP,,,1.413,eV,77,K,,,
Al$_{2}$O$_{3}$,,,8.56,eV,,,,,
GeO$_{2}$,,,5.54,eV,300,K,Gray,300,K
CdCl$_{2}$,,,5.8,eV,,,,,
As$_{2}$Se$_{3}$,,,1.63,eV,297,K,,,
Hg$_{2}$Br$_{2}$,,,2.6,eV,300,K,,,
Cd$_{3}$P$_{2}$,,,0.586,eV,77,K,Gray,77,K
SnI$_{4}$,,,2.38,eV,300,K,,,
ZnO,,,3.418,eV,77,K,,,
Se,,,1.56,eV,300,K,,,
BaO,,,3.8,eV,300,K,,,
Ag$_{2}$S,,,1,eV,300,K,,,
CdI$_{2}$,,,4.228,eV,80,K,,,
ZnS,,,3.82,eV,,,,,
FeSi$_{2}$,,,0.9,eV,,,,,
ZnAs$_{2}$,,,0.93,eV,297,K,,,
Bi$_{0.85}$Sb$_{0.15}$,,,0.008,eV,80,K,,,
Sn,,,0.092,eV,,,Gray,,
HfO$_{2}$,,,5.55,eV,300,K,,,
ZnSb,,,0.606,eV,4.2,K,,,
Bi$_{2}$O$_{3}$,,,2.15,eV,300,K,,,
ZnAs$_{2}$,,,1.3,eV,,,,,
Ce$_{2}$Se$_{3}$,,,2,eV,300,K,,,
BiI$_{3}$,,,1.93,eV,300,K,,,
Gd$_{2}$O$_{3}$,,,2.9,eV,933,K,,,
Zr$_{3}$O,,,0.2,eV,300,K,,,
GeSe$_{2}$,,,2.485,eV,300,K,Yellow-Orange,300,K
GaAs,,,1.435,eV,294,K,,,
Cu$_{2}$Te,,,1.08,eV,300,K,,,
Si,,,1.16,eV,77,K,,,
Ti$_{2}$O$_{3}$,,,0.05,eV,180,K,,,
CaB$_{6}$,,,3.3,eV,300,K,,,
GeS$_{2}$,,,3.54,eV,300,K,Amber,300,K
In$_{2}$Se$_{3}$,,,1.2,eV,300,K,Black,300,K
Al$_{2}$O$_{3}$,,,7.3,eV,300,K,,,
GeI$_{2}$,,,1.5,eV,300,K,,,
TbO$_{2}$,,,0.5,eV,300,K,,,
PdS$_{2}$,,,0.75,eV,300,K,,,
HfSe$_{2}$,,,1.13,eV,300,K,Dark Red,300,K
BeO,,,11.2,eV,300,K,,,
V$_{2}$O$_{5}$,,,2.36,eV,300,K,,,
Se,,,2.85,eV,,,,,
FeSe$_{2}$,,,0.5,eV,300,K,,,
PtSb$_{2}$,,,0.11,eV,10,K,,,
YbS,,,0.176,eV,500,K,,,
BaF$_{2}$,,,9.06,eV,300,K,,,
GaSb,,,0.725,eV,300,K,,,
Sm$_{2}$Se$_{3}$,,,2.3,eV,300,K,,,
Y$_{2}$O$_{3}$,,,5.6,eV,300,K,Blue,300,K
SmSb,,,0.59,eV,300,K,,,
WO$_{3}$,,,2.9,eV,300,K,,,
WSe$_{2}$,,,1.35,eV,295,K,,,
CBr$_{4}$,,,3.7,eV,300,K,,,
GaAs,,,1.51,eV,77,K,,,
PtP$_{2}$,,,0.8,eV,300,K,,,
BP,,,5.9,eV,,,,,
SrSe,,,4.45,eV,70,K,White,70,K
CdS,,,2.425,eV,300,K,,,
CdSe,,,1.815,eV,77,K,,,
GaS,,,2.591,eV,77,K,,,
Mg$_{3}$Bi$_{2}$,,,0.1,eV,300,K,,,
Bi$_{2}$Te$_{3}$,,,0.16,eV,,,,,
GaTe,,,1.52,eV,,,,,
Bi$_{2}$O$_{3}$,,,2.85,eV,300,K,,,
Gd$_{2}$O$_{3}$,,,1.36,eV,873,K,,,
CdS,,,2.573,eV,77,K,,,
Nb$_{2}$O$_{5}$,,,1.65,eV,573,K,,,
Mg$_{2}$Ge,,,0.54,eV,195,K,,,
PbTe,,,0.19,eV,4.2,K,,,
Mg$_{2}$Sn,,,0.18,eV,296,K,,,
GaP,,,2.78,eV,290,K,,,
ThO$_{2}$,,,3.2,eV,,,,,
GeO$_{2}$,,,6,eV,300,K,,,
C,,,5.47,eV,295,K,,,
TiO$_{2}$,,,2.9,eV,300,K,,,
CdO,,,2.35,eV,295,K,,,
Ga$_{2}$Te$_{3}$,,,1.45,eV,933,K,,,
PbO$_{2}$,,,2,eV,300,K,,,
AlBi,,,0.4,eV,300,K,,,
C,,,6,eV,,,,,
Se,,,1.8,eV,77,K,,,
SnS$_{2}$,,,2.07,eV,300,K,Yellow,300,K
BP,,,2,eV,300,K,,,
CoO,,,0.47,eV,250,K,,,
EuTe,,,1.959,eV,300,K,,,
BaS,,,3.9,eV,77,K,,,
BeO,,,14.5,eV,300,K,,,
AlSb,,,2.218,eV,300,K,Dark Gray,300,K
VO$_{2}$,,,0.4,eV,300,K,,,
SnTe,,,0.36,eV,,,,,
HgI$_{2}$,,,2.11,eV,300,K,Red,300,K
CdP$_{2}$,,,1.92,eV,293,K,,,
Mg$_{2}$Si,,,2.17,eV,77,K,,,
BAs,,,1.46,eV,300,K,Dark Brown,300,K
ZnP$_{2}$,,,2.18,eV,293,K,,,
Ge$_{0.891}$Si$_{0.109}$,,,1.126,eV,300,K,,,
C,,,5.41,eV,100,K,,,
As,,,1.2,eV,300,K,Gray,300,K
In$_{2}$Te$_{3}$,,,0.84,eV,300,K,,,
HgTe,,,0.283,eV,30,K,,,
ZnSb,,,0.61,eV,4.2,K,,,
TlI,,,2.67,eV,300,K,,,
MgTe,,,4.7,eV,300,K,,,
ZnAs$_{2}$,,,0.9,eV,297,K,,,
CuP$_{2}$,,,1.4,eV,300,K,,,
TiS$_{3}$,,,0.9,eV,300,K,,,
GaTe,,,1.74,eV,77,K,,,
BaO,,,5.13,eV,300,K,,,
As$_{2}$Se$_{3}$,,,1.8,eV,,,,,
ZnSb,,,0.48,eV,300,K,,,
In$_{2}$Te$_{3}$,,,1,eV,300,K,Black,300,K
Zr$_{6}$O,,,0.18,eV,300,K,,,
KCl,,,7.68,eV,300,K,,,
Bi$_{2}$Te$_{3}$,,,0.13,eV,300,K,,,
HgS,,,2.095,eV,283,K,Red,283,K
In$_{4}$S$_{5}$,,,0.9,eV,300,K,,,
Al$_{2}$Te$_{3}$,,,2.5,eV,300,K,,,
HgI$_{2}$,,,2.095,eV,280,K,Red,280,K
KI,,,6.31,eV,10,K,,,
CdP$_{2}$,,,2.15,eV,77,K,Dark Red,77,K
TlSe,,,0.96,eV,77,K,,,
Bi$_{2}$O$_{3}$,,,3.1,eV,77,K,,,
WSe$_{2}$,,,1.45,eV,77,K,,,
GeTe,,,0.8,eV,300,K,,,
LiF,,,12.1,eV,77,K,,,
As$_{2}$S$_{3}$,,,2.56,eV,300,K,,,
PtO$_{2}$,,,0.2,eV,300,K,,,
MoS$_{2}$,,,1,eV,300,K,,,
TlSe,,,0.57,eV,,,,,
AlN,,,5.74,eV,300,K,White,300,K
SiO$_{2}$,,,10.4,eV,300,K,,,
MoO$_{3}$,,,3.54,eV,300,K,,,
KBr,,,7.6,eV,300,K,,,
BiI$_{3}$,,,1.81,eV,295,K,,,
Bi$_{2}$S$_{3}$,,,1.2,eV,300,K,,,
PrB$_{6}$,,,4.9,eV,300,K,,,
GdN,,,1.54,eV,300,K,,,
AlP,,,2.42,eV,293,K,,,
Tl$_{2}$Te$_{3}$,,,0.7,eV,303,K,,,
SnS$_{2}$,,,2.88,eV,300,K,Yellow,300,K
Ti$_{2}$O$_{3}$,,,0.04$\pm$0.02,eV,4.2,K,,,
Dy$_{2}$O$_{3}$,,,1.39,eV,,,,,
EuO,,,1.115,eV,300,K,,,
AlAs,,,2.16,eV,300,K,,,
PbO,,,1.936,eV,300,K,Red,300,K
Tl$_{2}$O$_{3}$,,,1.4,eV,300,K,,,
TiO$_{2}$,,,3,eV,296,K,,,
KI,,,6.08,eV,80,K,,,
Rb$_{3}$Sb,,,1,eV,300,K,,,
NaBr,,,7.26,eV,55,K,,,
InSe,,,1.187,eV,293,K,,,
Na$_{3}$Sb,,,1.1,eV,300,K,,,
AsI$_{3}$,,,2.29,eV,300,K,,,
InAs,,,0.356,eV,298,K,Dark Gray,298,K
MnI$_{2}$,,,4.04,eV,77,K,,,
GaS,,,2.5,eV,295,K,,,
Zn$_{3}$Sb$_{2}$,,,0.2,eV,300,K,,,
GeSe$_{2}$,,,2.38,eV,300,K,,,
V$_{2}$O$_{4}$,,,0.66,eV,300,K,,,
Y$_{2}$O$_{3}$,,,1.46,eV,873,K,,,
GaAs,,,1.507,eV,77,K,,,
RbBr,,,7.25,eV,55,K,,,
KCl,,,8.9,eV,10,K,,,
GeSe,,,1.53,eV,300,K,,,
GaN,,,3.8,eV,300,K,,,
MgSe,,,5.6,eV,300,K,,,
CdP$_{2}$,,,1.93,eV,300,K,,,
HfSe$_{2}$,,,2.2,eV,300,K,,,
ZnSb,,,0.603,eV,4.2,K,,,
CeO$_{2}$,,,5.5,eV,300,K,,,
ZnSb,,,0.53,eV,297,K,,,
AlSb,,,1.6,eV,,,Dark Gray,,
MgO,,,7.4,eV,300,K,,,
Cu$_{2}$Te,,,1.02,eV,300,K,,,
MgF$_{2}$,,,11.8,eV,300,K,,,
Mg$_{2}$Ge,,,0.532,eV,300,K,,,
GaS,,,2.62,eV,77,K,,,
PbTe,,,0.21,eV,77,K,White,77,K
HgS,,,2.183,eV,20.4,K,,,
Ho$_{2}$O$_{3}$,,,2.84,eV,573,K,,,
Ga$_{2}$Te$_{3}$,,,1.32,eV,300,K,,,
C,,,5.542,eV,90,K,,,
WO$_{3}$,,,2.8,eV,300,K,,,
Mg$_{2}$Pb,,,0.041,eV,77,K,,,
NiO,,,4,eV,300,K,,,
Sb$_{2}$O$_{3}$,,,3.2,eV,300,K,,,
NiO,,,3.7,eV,700,K,,,
SeTe,,,0.561,eV,300,K,,,
Bi$_{2}$Se$_{3}$,,,0.35,eV,300,K,,,
BSb,,,2.6,eV,300,K,,,
InSb,,,0.175,eV,300,K,,,
Ge,,,0.88,eV,89,K,,,
ZnSe,,,2.795,eV,300,K,,,
SnO$_{2}$,,,3.69,eV,300,K,,,
Ge,,,0.665,eV,291,K,,,
PdSe,,,0.2,eV,300,K,,,
SiAs,,,1.48,eV,300,K,,,
KF,,,10.9,eV,300,K,,,
ThO$_{2}$,,,5.75,eV,300,K,,,
Ga$_{2}$O$_{3}$,,,4.4,eV,300,K,White,300,K
TeO$_{2}$,,,3,eV,300,K,,,
PbO,,,2.6,eV,300,K,,,
AgBr,,,2.683,eV,4.2,K,,,
GeS,,,1.69,eV,77,K,,,
HfS$_{3}$,,,2.8,eV,300,K,Ocher,300,K
HgTe,,,0.19,eV,300,K,,,
CuN$_{3}$,,,4.96,eV,300,K,Yellow,300,K