formula,Property Band Gap,Property Band Gap units,Property Band gap,Property Band gap units,Temperature (Property Band gap),Temperature (Property Band gap) units,Property Color,Temperature (Property Color),Temperature (Property Color) units
LiGaAs$_{2}$O$_{7}$,2.9617,eV,,,,,,,
KNa$_{2}$CuO$_{2}$,1.5144,eV,,,,,,,
CuBiTeO,0.0,eV,,,,,,,
InBiO$_{3}$,0.049599999999999866,eV,,,,,,,
K$_{4}$CO$_{4}$,2.3359,eV,,,,,,,
Er$_{3}$(SiCu)$_{4}$,0.0,eV,,,,,,,
SrGd$_{2}$Al$_{2}$O$_{7}$,2.6254000000000004,eV,,,,,,,
YbBa$_{2}$BiO$_{6}$,0,eV,,,,,,,
B$_{4}$CCl$_{6}$O,4.0675,eV,,,,,,,
Ca$_{2}$Cu(BrO)$_{2}$,0.0,eV,,,,,,,
PdSeO$_{3}$,1.0589,eV,,,,,,,
Cs(CO)$_{2}$,2.6906999999999996,eV,,,,,,,
SiO$_{2}$,0.30210000000000026,eV,,,,,,,
K$_{6}$Ti$_{2}$O$_{7}$,3.4489,eV,,,,,,,
BaSbClO$_{2}$,2.881,eV,,,,,,,
GdZnPO,0.5424999999999995,eV,,,,,,,
CaO,3.1205999999999996,eV,,,,,,,
NbCuO$_{3}$F,0.17310000000000003,eV,,,,,,,
NdBi$_{2}$ClO$_{4}$,1.1834999999999996,eV,,,,,,,
Pr$_{2}$BiO$_{2}$,0.0,eV,,,,,,,
Na$_{4}$CO$_{4}$,1.6256999999999997,eV,,,,,,,
Ba$_{2}$TaBiO$_{6}$,2.5383999999999998,eV,,,,,,,
BaHf(PO$_{4}$)$_{2}$,4.9273,eV,,,,,,,
SnO,1.4074,eV,,,,,,,
UCdO$_{4}$,1.9427999999999996,eV,,,,,,,
Sr$_{2}$CuO$_{3}$,0.0,eV,,,,,,,
Ba$_{2}$BiSbO$_{6}$,1.6438999999999995,eV,,,,,,,
HgO,0.0,eV,,,,,,,
K$_{4}$CO$_{4}$,2.143,eV,,,,,,,
BaCO$_{3}$,3.9622,eV,,,,,,,
Ba$_{2}$DyBiO$_{6}$,1.7248000000000006,eV,,,,,,,
Pr$_{3}$Co$_{11}$B$_{4}$,0.0,eV,,,,,,,
Ca$_{3}$Cu$_{2}$(BrO$_{2}$)$_{2}$,0.0,eV,,,,,,,
LiUO$_{3}$,0.41359999999999975,eV,,,,,,,
SiO$_{2}$,4.8294,eV,,,,,,,
PrBi$_{2}$IO$_{4}$,1.2299000000000002,eV,,,,,,,
AgCNO,1.3014,eV,,,,,,,
Ba$_{2}$NdRuO$_{6}$,0.1256999999999997,eV,,,,,,,
KSO$_{4}$,3.5589999999999997,eV,,,,,,,
ZnSO$_{4}$,4.2625,eV,,,,,,,
Rb$_{4}$CO$_{4}$,1.7482000000000002,eV,,,,,,,
BaBiO$_{3}$,0,eV,,,,,,,
Ba$_{3}$ZnN$_{2}$O,0.42289999999999983,eV,,,,,,,
SnO,0.5353999999999992,eV,,,,,,,
NaIO$_{3}$,0.0,eV,,,,,,,
LuBi$_{2}$BrO$_{4}$,1.3984000000000005,eV,,,,,,,
Nd$_{2}$TeO$_{2}$,1.5804,eV,,,,,,,
AlPO$_{4}$,5.3232,eV,,,,,,,
AgSbO$_{3}$,0.25349999999999984,eV,,,,,,,
HoRh$_{2}$,0.0,eV,,,,,,,
YZnAsO,1.2061000000000002,eV,,,,,,,
MgCO$_{3}$,5.1935,eV,,,,,,,
TmBi$_{2}$ClO$_{4}$,1.4059,eV,,,,,,,
Rb$_{3}$TaO$_{8}$,2.9856,eV,,,,,,,
NaClO$_{4}$,4.4897,eV,,,,,,,
ScAsO$_{4}$,3.5491,eV,,,,,,,
Na$_{2}$UO$_{4}$,2.0153999999999996,eV,,,,,,,
SmBi$_{2}$ClO$_{4}$,1.6805999999999996,eV,,,,,,,
Eu$_{2}$BaCoO$_{5}$,0,eV,,,,,,,
Ag$_{2}$O$_{3}$,0.33609999999999995,eV,,,,,,,
TlIO$_{3}$,0.0,eV,,,,,,,
Li$_{4}$CO$_{4}$,4.177,eV,,,,,,,
Ca$_{2}$CuO$_{3}$,2.0174,eV,,,,,,,
DyBi$_{2}$IO$_{4}$,1.3667999999999996,eV,,,,,,,
ScBrO,3.236,eV,,,,,,,
NbI$_{3}$O,0.8108000000000002,eV,,,,,,,
YbClO,0.0,eV,,,,,,,
Sr$_{2}$CuOsO$_{6}$,0.0,eV,,,,,,,
Rb$_{5}$(CoO$_{2}$)$_{2}$,0.0,eV,,,,,,,
Rb$_{4}$CO$_{4}$,1.8353,eV,,,,,,,
Ba$_{2}$NdBiO$_{6}$,1.6734,eV,,,,,,,
TmBi$_{2}$BrO$_{4}$,1.3546,eV,,,,,,,
NaCNO,4.4908,eV,,,,,,,
SiO$_{2}$,5.5638000000000005,eV,,,,,,,
Na$_{4}$CO$_{4}$,3.3335,eV,,,,,,,
TaNO,0.0,eV,,,,,,,
YbNbO$_{4}$,0,eV,,,,,,,
ErBi$_{2}$BrO$_{4}$,1.3505000000000003,eV,,,,,,,
HoBi$_{2}$BrO$_{4}$,1.3664999999999994,eV,,,,,,,
KClO$_{4}$,5.128,eV,,,,,,,
K$_{4}$CO$_{4}$,1.8352,eV,,,,,,,
LaBi$_{2}$IO$_{4}$,1.2324000000000002,eV,,,,,,,
Nd$_{2}$AlNO$_{3}$,1.0619999999999994,eV,,,,,,,
PdSeO$_{3}$,0.6831,eV,,,,,,,
Na$_{4}$CO$_{4}$,2.4246,eV,,,,,,,
CsClO$_{4}$,5.3925,eV,,,,,,,
Sn$_{3}$PO$_{4}$F$_{3}$,3.7868,eV,,,,,,,
KNO$_{2}$,2.4085,eV,,,,,,,
LaCuTeO,1.1965999999999992,eV,,,,,,,
SiO$_{2}$,5.703399999999999,eV,,,,,,,
Na$_{3}$AlF$_{6}$,5.8904000000000005,eV,,,,,,,
Rb(CO)$_{2}$,2.6755,eV,,,,,,,
BaBi$_{4}$(IO$_{2}$)$_{2}$,0,eV,,,,,,,
HgPb$_{2}$(ClO)$_{2}$,2.2432000000000003,eV,,,,,,,
Y$_{2}$C(NO)$_{2}$,3.9662,eV,,,,,,,
V$_{7}$O$_{3}$,0.14430000000000032,eV,,,,,,,
Sr$_{2}$Cu(BrO)$_{2}$,0.0,eV,,,,,,,
CaSnO$_{3}$,0.0,eV,,,,,,,
Li(CO)$_{2}$,2.2184,eV,,,,,,,
SrSnO$_{3}$,0.9698000000000002,eV,,,,,,,
AgPS$_{3}$,1.3119999999999998,eV,,,,,,,
LiAlAs$_{2}$O$_{7}$,3.0496999999999996,eV,,,,,,,
Na$_{3}$SO$_{4}$F,2.3611,eV,,,,,,,
RuO$_{4}$,2.4235,eV,,,,,,,
TbBi$_{2}$ClO$_{4}$,1.3439000000000005,eV,,,,,,,
Rb$_{2}$Co$_{2}$O$_{3}$,1.354,eV,,,,,,,
Nb$_{2}$Cd$_{2}$O$_{7}$,1.8871,eV,,,,,,,
Co(PO$_{3}$)$_{2}$,2.9753000000000007,eV,,,,,,,
SrBiClO$_{2}$,3.3015,eV,,,,,,,
CaMgSi,0.0,eV,,,,,,,
NaTaN$_{2}$,1.2772000000000006,eV,,,,,,,
Sr$_{2}$Cu$_{3}$(ClO$_{2}$)$_{2}$,0.0,eV,,,,,,,
K$_{2}$Co(PO$_{3}$)$_{4}$,3.1734,eV,,,,,,,
Cs$_{4}$Mg$_{3}$F$_{10}$,6.2806,eV,,,,,,,
Pm$_{2}$O$_{3}$,3.8668,eV,,,,,,,
V$_{2}$Co$_{2}$O$_{7}$,1.8291000000000002,eV,,,,,,,
Na$_{5}$NbO$_{5}$,2.6402,eV,,,,,,,
KSbO$_{3}$,2.6656999999999997,eV,,,,,,,
TlPd$_{3}$O$_{4}$,1.0564999999999998,eV,,,,,,,
CdCO$_{3}$,0,eV,,,,,,,
Cs$_{2}$CoO$_{3}$,0.5157,eV,,,,,,,
Rb$_{4}$CO$_{4}$,0.9499,eV,,,,,,,
RbAlF$_{4}$,6.8752,eV,,,,,,,
MnV$_{2}$O$_{6}$,1.6373,eV,,,,,,,
NbCr$_{2}$,0.0,eV,,,,,,,
Na$_{6}$CoS$_{4}$,0.42700000000000005,eV,,,,,,,
CaCO$_{3}$,5.717699999999999,eV,,,,,,,
BaZnSO,2.2347,eV,,,,,,,
Cs$_{2}$U$_{2}$O$_{7}$,1.4975999999999998,eV,,,,,,,
FeCoPO$_{5}$,1.7627000000000002,eV,,,,,,,
U(BiO$_{3}$)$_{2}$,1.593,eV,,,,,,,
Ca(SiCu)$_{2}$,0.0,eV,,,,,,,
Tl$_{2}$Cu(SO$_{3}$)$_{2}$,0.14369999999999994,eV,,,,,,,
RbPO$_{3}$,4.5235,eV,,,,,,,
Sr$_{2}$ZnReO$_{6}$,0.0,eV,,,,,,,
Sr$_{3}$SiO$_{5}$,3.7602999999999995,eV,,,,,,,
CoH$_{6}$(CO$_{3}$)$_{2}$,2.6252,eV,,,,,,,
LiInO$_{2}$,1.8142999999999998,eV,,,,,,,
LuTaO$_{4}$,4.3138,eV,,,,,,,
K$_{2}$CoH$_{12}$(SO$_{7}$)$_{2}$,3.3092,eV,,,,,,,
CoNi(PO$_{3}$)$_{4}$,3.1231,eV,,,,,,,
MnAlAu$_{2}$,0.0,eV,,,,,,,
HoBi$_{2}$ClO$_{4}$,1.3709999999999996,eV,,,,,,,
InCuO$_{2}$,0.24040000000000017,eV,,,,,,,
SiO$_{2}$,5.7068,eV,,,,,,,
SrAl$_{2}$O$_{4}$,4.0564,eV,,,,,,,
Li$_{4}$CO$_{4}$,4.1774,eV,,,,,,,
PrSi$_{2}$Ni,0.0,eV,,,,,,,
LiGeBO$_{4}$,2.7310999999999996,eV,,,,,,,
NdBi$_{2}$IO$_{4}$,1.2653999999999996,eV,,,,,,,
Li$_{4}$CO$_{4}$,5.9251000000000005,eV,,,,,,,
TbBi$_{2}$BrO$_{4}$,1.2894,eV,,,,,,,
Sr$_{2}$Cu(IO)$_{2}$,0.0,eV,,,,,,,
KNb$_{4}$O$_{5}$F,0.0,eV,,,,,,,
Sr$_{2}$Co$_{2}$O$_{5}$,0,eV,,,,,,,
Ag$_{2}$PdO$_{2}$,0.02090000000000014,eV,,,,,,,
Li$_{4}$CO$_{4}$,3.8023,eV,,,,,,,
Sr$_{2}$Cu$_{3}$(IO$_{2}$)$_{2}$,0,eV,,,,,,,
LaZnAsO,0.5760000000000005,eV,,,,,,,
RbClO$_{2}$,2.3707000000000003,eV,,,,,,,
Al$_{5}$C$_{3}$N,1.4427000000000003,eV,,,,,,,
K$_{4}$CO$_{4}$,1.4359,eV,,,,,,,
GdBi$_{2}$ClO$_{4}$,0.8529,eV,,,,,,,
RbGeIO$_{6}$,2.4295,eV,,,,,,,
Er(CoGe)$_{2}$,0.0,eV,,,,,,,
MgO,3.2870999999999997,eV,,,,,,,
ErBi$_{2}$ClO$_{4}$,1.8499000000000003,eV,,,,,,,
NbI$_{2}$O,0.8338000000000001,eV,,,,,,,
DyZnPO,1.2613999999999992,eV,,,,,,,
Ba$_{2}$Ca(BO$_{3}$)$_{2}$,4.0801,eV,,,,,,,
Ca(MnAs)$_{2}$,0.0,eV,,,,,,,
K$_{4}$CO$_{4}$,2.5006000000000004,eV,,,,,,,
Ba$_{2}$ZnReO$_{6}$,0.0,eV,,,,,,,
Al$_{12}$Mo,0.0,eV,,,,,,,
ScBiO$_{3}$,0.6928999999999998,eV,,,,,,,
NbBr$_{2}$O,0.9038000000000002,eV,,,,,,,
Ba$_{2}$LaIrO$_{6}$,0,eV,,,,,,,
V$_{2}$CuO$_{6}$,9.999999999998899E-4,eV,,,,,,,
Tl(CoS)$_{2}$,0.0,eV,,,,,,,
SmBi$_{2}$BrO$_{4}$,1.2782999999999998,eV,,,,,,,
Sm$_{4}$Se$_{3}$O$_{4}$,1.2744000000000004,eV,,,,,,,
SnO$_{2}$,0.8060999999999998,eV,,,,,,,
Cs$_{2}$Co(NO$_{3}$)$_{4}$,2.9306,eV,,,,,,,
ErTaO$_{4}$,4.0531,eV,,,,,,,
YCu$_{2}$Bi$_{2}$(SeO$_{2}$)$_{2}$,0.0,eV,,,,,,,
Rb$_{4}$CO$_{4}$,1.9464,eV,,,,,,,
Li$_{4}$CO$_{4}$,4.9149,eV,,,,,,,
BaCO$_{3}$,4.3837,eV,,,,,,,
BeZnO$_{2}$,2.6553999999999998,eV,,,,,,,
V$_{2}$CdO$_{6}$,2.2554,eV,,,,,,,
GdTe$_{2}$ClO$_{5}$,0.36430000000000007,eV,,,,,,,
TiZn(BiO$_{3}$)$_{2}$,0.8966999999999992,eV,,,,,,,
Ba$_{8}$(CoO$_{3}$)$_{7}$,0.5404,eV,,,,,,,
Li$_{4}$CO$_{4}$,3.9008000000000003,eV,,,,,,,
Li$_{4}$CO$_{4}$,4.6576,eV,,,,,,,
U$_{2}$TeN$_{2}$,0.0,eV,,,,,,,
KClO$_{3}$,5.317,eV,,,,,,,
LaTaN$_{2}$O,0.6712999999999996,eV,,,,,,,
K$_{4}$CO$_{4}$,0.9476,eV,,,,,,,
CdBiClO$_{2}$,2.8418,eV,,,,,,,
EuBi$_{2}$ClO$_{4}$,0,eV,,,,,,,
ScTa(PbO$_{3}$)$_{2}$,2.5824,eV,,,,,,,
Li$_{4}$CO$_{4}$,3.9985,eV,,,,,,,
LuBi$_{2}$IO$_{4}$,1.9810999999999996,eV,,,,,,,
Rb$_{4}$CO$_{4}$,1.6732999999999998,eV,,,,,,,
Ba$_{2}$CaTeO$_{6}$,2.9976,eV,,,,,,,
PbO,2.2295,eV,,,,,,,
Ba$_{2}$Tl$_{2}$CuO$_{6}$,0.0,eV,,,,,,,
BaBeSiO$_{4}$,4.5484,eV,,,,,,,
RbClO$_{4}$,5.2141,eV,,,,,,,
Li$_{4}$CO$_{4}$,2.9837,eV,,,,,,,
Th(SiPd)$_{2}$,0.0,eV,,,,,,,
LuBi$_{2}$ClO$_{4}$,1.4617999999999998,eV,,,,,,,
SmZnPO,1.2904999999999998,eV,,,,,,,
HfO$_{2}$,3.8043000000000005,eV,,,,,,,
K$_{4}$CO$_{4}$,1.5969000000000002,eV,,,,,,,
SrHfO$_{3}$,3.6761000000000004,eV,,,,,,,
NaScAs$_{2}$O$_{7}$,3.6686000000000005,eV,,,,,,,
TiZn(BiO$_{3}$)$_{2}$,1.5993999999999997,eV,,,,,,,
BaAl$_{2}$,0.0,eV,,,,,,,
U(SiAu)$_{2}$,0,eV,,,,,,,
KLiZnO$_{2}$,2.1715,eV,,,,,,,
HoBi$_{2}$IO$_{4}$,1.3910999999999998,eV,,,,,,,
BaCuB$_{2}$O$_{5}$,0.49439999999999995,eV,,,,,,,
Sr$_{2}$YCoCu$_{2}$O$_{7}$,0.0,eV,,,,,,,
Rb$_{4}$CO$_{4}$,3.1319999999999997,eV,,,,,,,
Sr$_{4}$Al$_{14}$O$_{25}$,3.9458999999999995,eV,,,,,,,
Sr$_{2}$I$_{2}$O,3.4218,eV,,,,,,,
BaBiIO$_{2}$,2.947,eV,,,,,,,
ErBi$_{2}$IO$_{4}$,1.375,eV,,,,,,,
Rb$_{4}$CO$_{4}$,0.5892,eV,,,,,,,
Ba$_{2}$LaSbO$_{6}$,3.9633000000000003,eV,,,,,,,
Na$_{2}$Cu$_{2}$TeO$_{6}$,0.0,eV,,,,,,,
Tl$_{3}$VS$_{4}$,1.9533,eV,,,,,,,
TbSiCu,0.0,eV,,,,,,,
Rb$_{4}$CO$_{4}$,1.1243999999999998,eV,,,,,,,
Ba$_{2}$CuClO$_{2}$,2.3029,eV,,,,,,,
Tl$_{2}$O,0.5194000000000001,eV,,,,,,,
Li$_{7}$MnN$_{4}$,0.6562000000000001,eV,,,,,,,
K$_{4}$CO$_{4}$,2.0349000000000004,eV,,,,,,,
V$_{2}$ZnO$_{6}$,2.436,eV,,,,,,,
Li$_{3}$UO$_{4}$,0.3780000000000001,eV,,,,,,,
Pb$_{2}$O,0.0,eV,,,,,,,
Rb$_{4}$CO$_{4}$,0.48960000000000004,eV,,,,,,,
Tb(NiP)$_{2}$,0.0,eV,,,,,,,
Ba$_{2}$CdReO$_{6}$,0.0,eV,,,,,,,
K$_{4}$CO$_{4}$,2.3019,eV,,,,,,,
Li$_{4}$CO$_{4}$,4.6749,eV,,,,,,,
Zn$_{2}$P$_{2}$O$_{7}$,3.6447,eV,,,,,,,
AgClO$_{4}$,2.3652,eV,,,,,,,
AlPO$_{4}$,0.06330000000000013,eV,,,,,,,
GaAgSe$_{2}$,0.24839999999999995,eV,,,,,,,
YBi$_{2}$IO$_{4}$,1.3836000000000004,eV,,,,,,,
NbTlBr$_{4}$O,1.2473,eV,,,,,,,
Ba$_{2}$I$_{2}$O,3.1127000000000002,eV,,,,,,,
Li$_{4}$CO$_{4}$,6.1765,eV,,,,,,,
Ca$_{4}$Bi$_{2}$O,0.8137000000000003,eV,,,,,,,
Na$_{4}$CO$_{4}$,2.0001999999999995,eV,,,,,,,
PrBi$_{2}$BrO$_{4}$,1.2269000000000005,eV,,,,,,,
OsO$_{4}$,3.2473,eV,,,,,,,
AlBiO$_{3}$,2.977899999999999,eV,,,,,,,
Th$_{3}$Sb$_{4}$,0.03849999999999998,eV,,,,,,,
DyBi$_{2}$ClO$_{4}$,1.3622,eV,,,,,,,
YbBi$_{2}$BrO$_{4}$,0,eV,,,,,,,
Nd$_{2}$Ti$_{2}$S$_{2}$O$_{5}$,0.8252999999999999,eV,,,,,,,
PbCClO$_{2}$,2.9095999999999997,eV,,,,,,,
Sr$_{2}$Cu$_{3}$O$_{5}$,0.0,eV,,,,,,,
Bi$_{2}$SeO$_{2}$,0.3719000000000001,eV,,,,,,,
YClO,4.270700000000001,eV,,,,,,,
CsClO$_{2}$,2.3388999999999998,eV,,,,,,,
AgClO$_{2}$,0.8895000000000001,eV,,,,,,,
Ba$_{2}$PrNbO$_{6}$,3.0923,eV,,,,,,,
Ce$_{4}$Se$_{3}$O$_{4}$,9.999999999976694E-5,eV,,,,,,,
AgNO$_{3}$,1.8539,eV,,,,,,,
TbBa$_{2}$BiO$_{6}$,1.7187000000000001,eV,,,,,,,
Ba$_{2}$TaBiO$_{6}$,2.6759000000000004,eV,,,,,,,
SrBiBrO$_{2}$,3.1575999999999995,eV,,,,,,,
Bi$_{2}$SeO$_{2}$,0,eV,,,,,,,
SmBi$_{2}$IO$_{4}$,1.3042000000000002,eV,,,,,,,
SrTaNO$_{2}$,0.7545000000000002,eV,,,,,,,
LaCuSeO,1.5467999999999993,eV,,,,,,,
KAlO$_{2}$,3.9993999999999996,eV,,,,,,,
Sr$_{2}$CuBrO$_{2}$,2.3439,eV,,,,,,,
SrBiIO$_{2}$,2.8642999999999996,eV,,,,,,,
Na$_{4}$CO$_{4}$,1.5496,eV,,,,,,,
LiNbO$_{3}$,2.3243,eV,,,,,,,
La(CoSi)$_{2}$,0.0,eV,,,,,,,
YBi$_{2}$ClO$_{4}$,1.3088000000000002,eV,,,,,,,
Na$_{4}$CO$_{4}$,2.2404,eV,,,,,,,
LiScAs$_{2}$O$_{7}$,3.4518999999999997,eV,,,,,,,
ZrTaNO,0.0,eV,,,,,,,
KIO$_{3}$,2.5681999999999996,eV,,,,,,,
TmBi$_{2}$IO$_{4}$,1.4258999999999995,eV,,,,,,,
FeClO,1.9415000000000002,eV,,,,,,,
Ni$_{3}$(SnS)$_{2}$,0.0,eV,,,,,,,
ErU$_{2}$S$_{3}$O$_{2}$,0.0,eV,,,,,,,
BaBiClO$_{2}$,3.1773999999999996,eV,,,,,,,
TbBi$_{2}$IO$_{4}$,1.3266999999999998,eV,,,,,,,
MnFe$_{2}$Si,0.0,eV,,,,,,,
Ba$_{2}$CuBrO$_{2}$,2.3072999999999997,eV,,,,,,,
Na$_{4}$CO$_{4}$,2.4364,eV,,,,,,,
Pr$_{2}$Ti$_{2}$S$_{2}$O$_{5}$,0.8414999999999995,eV,,,,,,,
Rb$_{4}$CO$_{4}$,0.8876,eV,,,,,,,
DyBi$_{2}$BrO$_{4}$,1.3290000000000002,eV,,,,,,,
CaBiClO$_{2}$,3.6207000000000003,eV,,,,,,,
PrBi$_{2}$ClO$_{4}$,1.1244,eV,,,,,,,
Sm$_{2}$IO$_{2}$,0.0,eV,,,,,,,
Sr$_{2}$TiO$_{4}$,1.9141999999999997,eV,,,,,,,
NdBi$_{2}$BrO$_{4}$,1.2198999999999995,eV,,,,,,,
YBi$_{2}$BrO$_{4}$,1.3350000000000004,eV,,,,,,,
CsLaNb$_{2}$O$_{7}$,1.4413999999999998,eV,,,,,,,
Nd$_{4}$Se$_{3}$O$_{4}$,1.3232999999999997,eV,,,,,,,
Ba$_{2}$LaNbO$_{6}$,3.0351000000000004,eV,,,,,,,
CsCu$_{3}$O$_{2}$,1.4572,eV,,,,,,,
CsNdO$_{2}$,2.9250999999999996,eV,,,,,,,
CsCuO$_{2}$,0.9433999999999999,eV,,,,,,,
CsBe$_{2}$BO$_{3}$F$_{2}$,6.0015,eV,,,,,,,
La$_{2}$O$_{3}$,1.5337,eV,,,,,,,
Cs$_{4}$Sb$_{2}$O$_{5}$,2.5747,eV,,,,,,,
TiO$_{2}$,3.4299,eV,,,,,,,
NbAgO$_{3}$,1.7878999999999998,eV,,,,,,,
YSnPd$_{2}$,0.0,eV,,,,,,,
Ba$_{2}$LaAg$_{5}$S$_{6}$,1.4623000000000004,eV,,,,,,,
Zr$_{2}$SN$_{2}$,0.5502000000000002,eV,,,,,,,
ZnS,2.031,eV,,,,,,,
SiO$_{2}$,3.5957,eV,,,,,,,
Ba$_{5}$Si(Br$_{3}$O$_{2}$)$_{2}$,4.2627999999999995,eV,,,,,,,
CuSb$_{2}$H$_{12}$(O$_{3}$F$_{4}$)$_{2}$,0.95,eV,,,,,,,
Mg$_{2}$BP$_{3}$(H$_{3}$O$_{7}$)$_{2}$,5.1936,eV,,,,,,,
K$_{3}$MoF$_{6}$,3.3529999999999998,eV,,,,,,,
Ba$_{2}$Si$_{3}$O$_{8}$,4.4856,eV,,,,,,,
GePbO$_{3}$,2.6724,eV,,,,,,,
H$_{6}$RuN$_{3}$Cl$_{3}$O,1.8942,eV,,,,,,,
KNa$_{9}$In$_{2}$O$_{8}$,1.7136,eV,,,,,,,
Rb$_{3}$AgO$_{2}$,1.5831,eV,,,,,,,
Tl$_{2}$(SeO$_{3}$)$_{3}$,2.1587,eV,,,,,,,
NaZr$_{2}$(AsO$_{4}$)$_{3}$,3.7453000000000003,eV,,,,,,,
KCdCu$_{7}$Se$_{2}$Cl$_{9}$O$_{8}$,0.0,eV,,,,,,,
ZnS,2.0265,eV,,,,,,,
Eu$_{2}$B$_{5}$ClO$_{9}$,0.8729000000000005,eV,,,,,,,
Pm$_{2}$O$_{3}$,3.7665999999999995,eV,,,,,,,
K$_{2}$Mo$_{15}$S$_{19}$,0.22670000000000012,eV,,,,,,,
K$_{2}$AgSbS$_{4}$,1.0986999999999998,eV,,,,,,,
Ag$_{4}$PIO$_{4}$,0.6932,eV,,,,,,,
Rb$_{5}$B$_{19}$O$_{31}$,5.2851,eV,,,,,,,
NaLiB$_{4}$O$_{7}$,5.7974,eV,,,,,,,
Pu(IO$_{3}$)$_{4}$,0.09099999999999975,eV,,,,,,,
B$_{2}$Pb$_{6}$SO$_{12}$,2.7033000000000005,eV,,,,,,,
GaPO$_{4}$,4.4398,eV,,,,,,,
K$_{2}$Ag$_{4}$Pd$_{3}$(NO$_{2}$)$_{12}$,1.7342,eV,,,,,,,
CaCO$_{3}$,4.7004,eV,,,,,,,
Cu$_{2}$S,0.04689999999999994,eV,,,,,,,
Ba$_{4}$Al$_{3}$Cu$_{2}$F$_{21}$,0.6602000000000001,eV,,,,,,,
SiO$_{2}$,5.6009,eV,,,,,,,
Tl$_{4}$Hg$_{3}$Sb$_{2}$(As$_{2}$S$_{5}$)$_{4}$,1.6628000000000003,eV,,,,,,,
Ag$_{2}$Hg$_{2}$(TeO$_{4}$)$_{3}$,0.13640000000000008,eV,,,,,,,
Li$_{10}$Si$_{2}$PbO$_{10}$,2.9602999999999997,eV,,,,,,,
Li(CoO$_{2}$)$_{2}$,0.41080000000000005,eV,,,,,,,
B$_{4}$COF$_{6}$,4.9696,eV,,,,,,,
P$_{2}$Pb$_{3}$O$_{8}$,3.2968,eV,,,,,,,
Zn$_{3}$(PO$_{4}$)$_{2}$,3.3332,eV,,,,,,,
Na$_{6}$Nb$_{8}$(PO$_{7}$)$_{5}$,0.0517000000000003,eV,,,,,,,
ScNbO$_{4}$,3.3047000000000004,eV,,,,,,,
Rb$_{2}$LiNbS$_{4}$,2.306,eV,,,,,,,
YbSeO$_{3}$F,0.008400000000000019,eV,,,,,,,
RbLaNb$_{2}$O$_{7}$,1.9664,eV,,,,,,,
CsGeBiS$_{4}$,2.0122,eV,,,,,,,
CuCSN,2.3965999999999994,eV,,,,,,,
GeS$_{2}$,2.2429,eV,,,,,,,
Ba$_{7}$Fe$_{6}$CuF$_{34}$,0.6143000000000001,eV,,,,,,,
K$_{3}$Na$_{2}$InO$_{4}$,1.9057,eV,,,,,,,
CsTaPS$_{6}$,1.7898999999999998,eV,,,,,,,
K$_{4}$NpS$_{2}$ClO$_{10}$,0.1378999999999997,eV,,,,,,,
KSeNO$_{2}$,2.7877,eV,,,,,,,
Cs$_{2}$Ni(PS$_{3}$)$_{2}$,0.5594999999999999,eV,,,,,,,
RbMnF$_{4}$,2.0352,eV,,,,,,,
K$_{4}$In$_{2}$Si$_{8}$O$_{21}$,3.8038,eV,,,,,,,
AsP$_{3}$H$_{18}$C$_{6}$(SO)$_{6}$,3.4175,eV,,,,,,,
Cs$_{2}$LiF$_{3}$,5.659000000000001,eV,,,,,,,
Ba$_{4}$B$_{2}$N$_{4}$O,2.8031999999999995,eV,,,,,,,
Ti(GaO$_{2}$)$_{4}$,2.3608000000000002,eV,,,,,,,
SiO$_{2}$,5.6413,eV,,,,,,,
Ni$_{3}$(BiS)$_{2}$,0,eV,,,,,,,
Ba$_{2}$Fe$_{3}$F$_{10}$,3.4795999999999996,eV,,,,,,,
Ba$_{2}$Ni$_{3}$F$_{10}$,4.8298000000000005,eV,,,,,,,
SrB$_{4}$O$_{7}$,7.117000000000001,eV,,,,,,,
Nd$_{3}$S$_{3}$N,1.5240999999999998,eV,,,,,,,
Al(HO)$_{3}$,4.9959999999999996,eV,,,,,,,
Sr$_{4}$Li(BO$_{3}$)$_{3}$,4.1874,eV,,,,,,,
ZnS,2.0337,eV,,,,,,,
KGdCO$_{3}$F$_{2}$,2.7183,eV,,,,,,,
SrCaSiO$_{4}$,4.4796,eV,,,,,,,
Er$_{4}$Si$_{3}$O$_{11}$F$_{2}$,5.0561,eV,,,,,,,
SClO$_{2}$F,4.6493,eV,,,,,,,
Li$_{2}$Si$_{4}$Cu$_{5}$O$_{14}$,0.21860000000000035,eV,,,,,,,
CsK(ClO$_{4}$)$_{2}$,5.5306999999999995,eV,,,,,,,
K$_{4}$Ti$_{2}$PO$_{4}$F$_{9}$,3.0556,eV,,,,,,,
Mg$_{3}$BeAl$_{8}$O$_{16}$,5.240499999999999,eV,,,,,,,
Sn$_{2}$P$_{2}$O$_{7}$,3.5193000000000003,eV,,,,,,,
Be$_{2}$BO$_{3}$F,6.3561,eV,,,,,,,
SNF,4.0441,eV,,,,,,,
Y$_{7}$C$_{3}$I$_{6}$O,0.0,eV,,,,,,,
NaMg$_{4}$V$_{3}$O$_{12}$,3.3215999999999997,eV,,,,,,,
Na$_{6}$Si$_{8}$O$_{19}$,4.5317,eV,,,,,,,
KLa$_{2}$NbO$_{6}$,3.7492,eV,,,,,,,
KU$_{2}$H$_{5}$C$_{4}$O$_{15}$,2.117,eV,,,,,,,
CaTa$_{2}$O$_{6}$,2.4404,eV,,,,,,,
CuSeO$_{4}$,0.0,eV,,,,,,,
Na$_{2}$Al$_{2}$B$_{2}$O$_{7}$,4.3422,eV,,,,,,,
NaAg(NO$_{2}$)$_{2}$,2.1127,eV,,,,,,,
Mn(AgO$_{2}$)$_{2}$,0.058499999999999996,eV,,,,,,,
H$_{6}$CNF,6.0427,eV,,,,,,,
SrGaBO$_{4}$,3.7452,eV,,,,,,,
Ca$_{2}$B$_{5}$BrO$_{9}$,5.2036,eV,,,,,,,
KPr(SO$_{4}$)$_{2}$,5.5718000000000005,eV,,,,,,,
K$_{3}$NdH$_{6}$(C$_{2}$O$_{5}$)$_{3}$,3.0431999999999997,eV,,,,,,,
Sr$_{2}$UZnO$_{6}$,1.8036000000000003,eV,,,,,,,
Na$_{3}$Pr$_{14}$(RuO$_{6}$)$_{6}$,1.5019999999999998,eV,,,,,,,
MnSbS$_{2}$Br,0.6707999999999998,eV,,,,,,,
SmSeClO$_{3}$,4.3959,eV,,,,,,,
Ba$_{3}$Lu$_{2}$Zn$_{5}$O$_{11}$,2.29,eV,,,,,,,
Na$_{8}$Nb$_{2}$Cu$_{4}$S$_{21}$,1.1534,eV,,,,,,,
K$_{2}$CO$_{3}$,3.6203,eV,,,,,,,
BaLiBS$_{3}$,2.1531,eV,,,,,,,
FeS$_{3}$N$_{2}$Cl$_{5}$,1.3504,eV,,,,,,,
Ca$_{2}$PClO$_{4}$,5.3708,eV,,,,,,,
Ho$_{2}$Hf$_{2}$O$_{7}$,3.1157000000000004,eV,,,,,,,
BaZnAs$_{2}$O$_{7}$,2.8585,eV,,,,,,,
BaBi$_{6}$(PO$_{5}$)$_{4}$,3.4275999999999995,eV,,,,,,,
Te(CF$_{4}$)$_{2}$,4.4043,eV,,,,,,,
SiO$_{2}$,5.660399999999999,eV,,,,,,,
CaMg$_{2}$(SO$_{4}$)$_{3}$,5.7585999999999995,eV,,,,,,,
NiRhF$_{6}$,0.02040000000000003,eV,,,,,,,
SnHg$_{2}$(SBr)$_{2}$,2.3372,eV,,,,,,,
Sm$_{3}$SiCuS$_{7}$,1.6556999999999995,eV,,,,,,,
Ti$_{6}$O,0.0,eV,,,,,,,
ZrVSi,0.0,eV,,,,,,,
CdAg$_{2}$GeS$_{4}$,0.5693000000000001,eV,,,,,,,
K$_{2}$Na$_{4}$Ge$_{2}$O$_{7}$,2.9946,eV,,,,,,,
LiRe(OF$_{2}$)$_{2}$,3.1439000000000004,eV,,,,,,,
CSNO$_{3}$,3.7859,eV,,,,,,,
Ti$_{3}$Tl$_{3}$(PO$_{4}$)$_{5}$,2.5919000000000003,eV,,,,,,,
LuP$_{5}$O$_{14}$,5.4534,eV,,,,,,,
ZnS,2.0181000000000004,eV,,,,,,,
BaPb$_{2}$BrF$_{5}$,3.2598,eV,,,,,,,
KZrCuF$_{7}$,0.2299,eV,,,,,,,
KSnAsS$_{5}$,1.7082,eV,,,,,,,
DyCuS$_{2}$,1.6324,eV,,,,,,,
NaHf$_{2}$VF$_{11}$,3.1712000000000002,eV,,,,,,,
Br$_{3}$N(O$_{2}$F$_{5}$)$_{2}$,1.4972,eV,,,,,,,
SnS,1.6680000000000001,eV,,,,,,,
MgSiO$_{3}$,4.2238999999999995,eV,,,,,,,
Pr$_{2}$SbO$_{5}$F,3.5080000000000005,eV,,,,,,,
Ba$_{3}$Ga$_{2}$(Ge$_{2}$O$_{7}$)$_{2}$,2.2535999999999996,eV,,,,,,,
TlV$_{3}$(CrS$_{4}$)$_{2}$,0.0,eV,,,,,,,
Ca$_{3}$SiO$_{5}$,3.3125000000000004,eV,,,,,,,
Ge(TeO$_{3}$)$_{2}$,3.8764999999999996,eV,,,,,,,
Ba$_{7}$Ru$_{4}$Cl$_{2}$O$_{15}$,0.375,eV,,,,,,,
K$_{3}$Mn$_{2}$F$_{7}$,2.7835,eV,,,,,,,
Na$_{3}$SrPCO$_{7}$,4.0616,eV,,,,,,,
K$_{14}$In$_{4}$O$_{13}$,1.8377999999999997,eV,,,,,,,
Rb$_{2}$Nb$_{2}$P$_{2}$S$_{11}$,1.1636000000000002,eV,,,,,,,
BaNaFe$_{2}$F$_{9}$,3.7199,eV,,,,,,,
Nd$_{3}$CuGeS$_{7}$,1.6757999999999997,eV,,,,,,,
SiO$_{2}$,5.725199999999999,eV,,,,,,,
SbS$_{4}$N$_{4}$Cl$_{5}$,1.6012,eV,,,,,,,
KSb(PO$_{4}$)$_{2}$,2.9439,eV,,,,,,,
KNaZnP$_{2}$O$_{7}$,4.2038,eV,,,,,,,
Li$_{2}$BeSiO$_{4}$,5.5994,eV,,,,,,,
K$_{2}$CuP$_{2}$O$_{7}$,0.2617999999999999,eV,,,,,,,
KLiZnP$_{2}$O$_{7}$,4.2904,eV,,,,,,,
V$_{3}$ZnO$_{8}$,1.933,eV,,,,,,,
KRb$_{2}$MoF$_{6}$,3.6936999999999998,eV,,,,,,,
Mg$_{3}$(PO$_{4}$)$_{2}$,0.0,eV,,,,,,,
Ba$_{3}$Zr$_{2}$S$_{7}$,0.5038,eV,,,,,,,
Ca$_{2}$P$_{2}$H$_{8}$O$_{11}$,4.854299999999999,eV,,,,,,,
SiO$_{2}$,5.7494,eV,,,,,,,
ZrHg$_{3}$(SCl$_{3}$)$_{2}$,2.5574,eV,,,,,,,
Ho$_{2}$Cu(BO$_{2}$)$_{8}$,0.8664999999999998,eV,,,,,,,
AlPO$_{4}$,5.6724,eV,,,,,,,
SnH$_{21}$C$_{7}$S$_{4}$N(O$_{3}$F)$_{2}$,4.7629,eV,,,,,,,
KV$_{3}$P$_{4}$O$_{17}$,1.1557,eV,,,,,,,
CaZr$_{4}$O$_{9}$,3.8366000000000002,eV,,,,,,,
Na$_{2}$UO$_{4}$,1.8660000000000005,eV,,,,,,,
NaGa(TeO$_{3}$)$_{2}$,3.243,eV,,,,,,,
Sb$_{3}$As$_{2}$S$_{14}$(IF$_{8}$)$_{3}$,1.8039,eV,,,,,,,
CaMg(SiO)$_{2}$,0,eV,,,,,,,
RbSnIO$_{6}$,2.1505,eV,,,,,,,
Sr$_{2}$YCu$_{3}$(PbO$_{4}$)$_{2}$,0.0,eV,,,,,,,
MoF$_{3}$,2.9582,eV,,,,,,,
Li$_{4}$Ga$_{3}$Si$_{3}$ClO$_{12}$,4.4117999999999995,eV,,,,,,,
Ni$_{3}$(BiS)$_{2}$,0.0,eV,,,,,,,
Cs$_{2}$Al$_{2}$As$_{2}$O$_{7}$,3.6603000000000003,eV,,,,,,,
TaBi$_{4}$BrO$_{8}$,1.7271999999999998,eV,,,,,,,
Tl$_{2}$Ni$_{3}$S$_{2}$,0.0,eV,,,,,,,