formula,Property Band Gap,Property Band Gap units,Property Band gap,Property Band gap units,Temperature (Property Band gap),Temperature (Property Band gap) units,Property Color,Temperature (Property Color),Temperature (Property Color) units
BaPr(CoO$_{3}$)$_{2}$,0.17090000000000005,eV,,,,,,,
Ba$_{2}$UCoO$_{6}$,0.0,eV,,,,,,,
CoPb$_{2}$WO$_{6}$,1.7802000000000007,eV,,,,,,,
Co$_{2}$P$_{2}$O$_{7}$,2.7209000000000003,eV,,,,,,,
LiCoAsO$_{4}$,2.2041000000000004,eV,,,,,,,
SrCo$_{6}$O$_{11}$,0.09779999999999989,eV,,,,,,,
GdCoO$_{3}$,0.17539999999999978,eV,,,,,,,
CoO,0.9672999999999998,eV,,,,,,,
SmCoO$_{3}$,0.15770000000000017,eV,,,,,,,
Sr$_{2}$Co(BrO)$_{2}$,0.6307,eV,,,,,,,
Cr$_{2}$CoO$_{4}$,2.6060000000000003,eV,,,,,,,
Na$_{3}$Co(NO$_{2}$)$_{6}$,2.531,eV,,,,,,,
K$_{3}$Co(NO$_{2}$)$_{6}$,2.6982999999999997,eV,,,,,,,
K$_{2}$BaCo(NO$_{2}$)$_{6}$,0.0,eV,,,,,,,
CoSeO$_{3}$,2.5183,eV,,,,,,,
Rb$_{2}$CoPb(NO$_{2}$)$_{6}$,0.0,eV,,,,,,,
HoCoO$_{3}$,0.0,eV,,,,,,,
Co$_{3}$(BO$_{3}$)$_{2}$,2.1624,eV,,,,,,,
SmCoO$_{3}$,0.0,eV,,,,,,,
YCoO$_{3}$,1.4118999999999997,eV,,,,,,,
Ba$_{2}$Nd$_{2}$Co$_{4}$O$_{11}$,0.0618000000000003,eV,,,,,,,
SiOs,0.5122,eV,,,,,,,
Na$_{2}$CoGeO$_{4}$,1.5370000000000001,eV,,,,,,,
TbCoO$_{3}$,1.3567999999999998,eV,,,,,,,
NdCoO$_{3}$,0.0,eV,,,,,,,
Tb$_{2}$Ba$_{2}$Co$_{4}$O$_{11}$,0.05410000000000004,eV,,,,,,,
Co$_{2}$Si(P$_{2}$O$_{7}$)$_{2}$,3.0023,eV,,,,,,,
CoGeO$_{3}$,1.4632999999999994,eV,,,,,,,
Sr$_{2}$UCoO$_{6}$,1.4171999999999998,eV,,,,,,,
Na$_{2}$CoP$_{2}$O$_{7}$,3.0335,eV,,,,,,,
SrCoAs$_{2}$O$_{7}$,2.5917,eV,,,,,,,
Fe$_{4}$Co$_{3}$(PO$_{4}$)$_{6}$,1.7839,eV,,,,,,,
UC,0.0,eV,,,,,,,
Na$_{4}$Co$_{7}$(PO$_{4}$)$_{6}$,2.3581000000000003,eV,,,,,,,
BaLu$_{2}$CoO$_{5}$,1.9953000000000003,eV,,,,,,,
Co$_{7}$(AsO$_{6}$)$_{2}$,0.7673000000000005,eV,,,,,,,
Cr$_{4}$Co$_{3}$(PO$_{4}$)$_{6}$,2.0835999999999997,eV,,,,,,,
SrCoP$_{2}$O$_{7}$,3.0355,eV,,,,,,,
Ba$_{5}$Co$_{5}$O$_{14}$,0.0,eV,,,,,,,
Cr$_{3}$O,0.0,eV,,,,,,,
Cr$_{2}$WO$_{6}$,1.4806,eV,,,,,,,
Cr$_{2}$HgO$_{4}$,1.2575000000000003,eV,,,,,,,
HfAl,0.0,eV,,,,,,,
GaP,1.5928,eV,,,,,,,
Cr$_{2}$FeO$_{4}$,0.0,eV,,,,,,,
CrPb$_{2}$O$_{5}$,1.8217999999999996,eV,,,,,,,
CrBiO$_{3}$,1.2936999999999994,eV,,,,,,,
Na$_{3}$CrP$_{8}$O$_{23}$,3.4952,eV,,,,,,,
CrClO,1.8896000000000002,eV,,,,,,,
UCr$_{2}$O$_{6}$,1.0302000000000007,eV,,,,,,,
TmCrO$_{4}$,0.21420000000000017,eV,,,,,,,
CaCrO$_{3}$,0.6156999999999999,eV,,,,,,,
ErSe,0.0,eV,,,,,,,
NaCr(GeO$_{3}$)$_{2}$,2.6628000000000003,eV,,,,,,,
Cr$_{3}$BO$_{6}$,1.6019999999999994,eV,,,,,,,
CrPbO$_{3}$,0.18080000000000052,eV,,,,,,,
SrCrO$_{3}$,0.031199999999999672,eV,,,,,,,
CeCrO$_{3}$,0.01130000000000031,eV,,,,,,,
GdCrO$_{4}$,0.6165,eV,,,,,,,
Cr$_{2}$TeO$_{6}$,1.3564999999999996,eV,,,,,,,
Cr$_{4}$AgBiO$_{14}$,1.9911999999999999,eV,,,,,,,
Li$_{2}$CrO$_{4}$,2.6021,eV,,,,,,,
TlCrP$_{2}$O$_{7}$,2.791,eV,,,,,,,
KCrP$_{2}$O$_{7}$,2.8453999999999997,eV,,,,,,,
NaCrP$_{2}$O$_{7}$,2.7103,eV,,,,,,,
Tl$_{2}$CrO$_{4}$,2.5156,eV,,,,,,,
CrHO$_{2}$,2.9692,eV,,,,,,,
K$_{2}$Cr$_{2}$Cd(H$_{2}$O$_{5}$)$_{2}$,0.0,eV,,,,,,,
Cr$_{2}$CdH$_{14}$(NO$_{2}$)$_{4}$,2.8216,eV,,,,,,,
CeN,0.0,eV,,,,,,,
In(FeO$_{2}$)$_{2}$,0.0,eV,,,,,,,
FeBiO$_{3}$,1.9066,eV,,,,,,,
InFeO$_{3}$,1.2548000000000004,eV,,,,,,,
Sr$_{3}$Fe$_{2}$Cl$_{2}$O$_{5}$,1.0836999999999999,eV,,,,,,,
Sr$_{3}$Fe$_{2}$Br$_{2}$O$_{5}$,1.0993,eV,,,,,,,
BaSr(FeO$_{2}$)$_{4}$,1.8198999999999999,eV,,,,,,,
NaFeO$_{2}$,2.0607999999999995,eV,,,,,,,
Cd(FeO$_{2}$)$_{2}$,1.8014,eV,,,,,,,
Fe$_{2}$NiO$_{4}$,0.00140000000000029,eV,,,,,,,
FeBiO$_{3}$,1.9309000000000003,eV,,,,,,,
KFe(SO$_{4}$)$_{2}$,2.1547,eV,,,,,,,
SmFeAsO,0.2763,eV,,,,,,,
LaFeAsO,0.017699999999999605,eV,,,,,,,
CaFeO$_{2}$,0.4242999999999997,eV,,,,,,,
BaYFe$_{2}$O$_{5}$,0.09109999999999996,eV,,,,,,,
RbFe(SeO$_{4}$)$_{2}$,2.2159,eV,,,,,,,
FeAsO$_{4}$,2.3256,eV,,,,,,,
PrS,0.0,eV,,,,,,,
CaTi$_{4}$(FeO$_{4}$)$_{3}$,1.6248,eV,,,,,,,
YbFeO$_{3}$,0.0,eV,,,,,,,
TbFeO$_{3}$,1.5513,eV,,,,,,,
DyFeO$_{3}$,1.5602999999999998,eV,,,,,,,
NaAl$_{6}$Fe$_{3}$Si$_{6}$B$_{3}$O$_{30}$F,2.5556,eV,,,,,,,
Sr$_{4}$Fe$_{4}$O$_{11}$,0.0,eV,,,,,,,
ErFeO$_{3}$,1.5703,eV,,,,,,,
Na$_{4}$Fe$_{2}$(PO$_{4}$)$_{3}$,0.1445000000000003,eV,,,,,,,
Cs$_{4}$Sn$_{23}$,0.0,eV,,,,,,,
HoFeO$_{3}$,1.5675,eV,,,,,,,
LuFeO$_{3}$,1.5868000000000002,eV,,,,,,,
SrFeO$_{2}$,0.39800000000000013,eV,,,,,,,
LaFe$_{3}$(BO$_{3}$)$_{4}$,2.2811,eV,,,,,,,
Fe$_{2}$TeO$_{6}$,1.2382,eV,,,,,,,
FeMoClO$_{4}$,2.2046,eV,,,,,,,
Fe$_{2}$GeO$_{4}$,1.4076999999999997,eV,,,,,,,
GdZn,0.0,eV,,,,,,,
Ca$_{2}$FeSbO$_{6}$,2.1542,eV,,,,,,,
BaDyFe$_{2}$O$_{5}$,0.8398999999999996,eV,,,,,,,
Fe$_{2}$O$_{3}$,1.5284000000000004,eV,,,,,,,
FePO$_{4}$,2.5674,eV,,,,,,,
NaFeO$_{2}$,2.0924,eV,,,,,,,
Fe$_{2}$P$_{4}$PbO$_{14}$,2.5618,eV,,,,,,,
TiFe$_{2}$O$_{5}$,1.8775,eV,,,,,,,
LiFe(GeO$_{3}$)$_{2}$,2.2946,eV,,,,,,,
PrOs$_{2}$,0.0,eV,,,,,,,
TmFeO$_{3}$,1.5761999999999996,eV,,,,,,,
RbFeP$_{2}$O$_{7}$,2.4814000000000003,eV,,,,,,,
Fe$_{2}$PO$_{5}$,1.6458999999999997,eV,,,,,,,
SrFe$_{3}$(P$_{2}$O$_{7}$)$_{2}$,4.0312,eV,,,,,,,
SrFeP$_{2}$O$_{7}$,4.2713,eV,,,,,,,
TlFeC$_{3}$NO$_{4}$,2.6451,eV,,,,,,,
Fe$_{4}$Ni$_{3}$(PO$_{4}$)$_{6}$,2.0853,eV,,,,,,,
K$_{2}$Li$_{3}$FeO$_{4}$,3.0919000000000003,eV,,,,,,,
SmFeO$_{3}$,1.5177999999999998,eV,,,,,,,
BaSi,0.0,eV,,,,,,,
NdFeO$_{3}$,1.4748999999999999,eV,,,,,,,
NaFe(GeO$_{3}$)$_{2}$,2.7231,eV,,,,,,,
FeHO$_{2}$,0.8356999999999999,eV,,,,,,,
Fe(IO$_{3}$)$_{3}$,2.4612000000000003,eV,,,,,,,
PrFeO$_{3}$,1.4466999999999999,eV,,,,,,,
Na$_{3}$FePCO$_{7}$,3.7631000000000006,eV,,,,,,,
YFeO$_{3}$,1.5605000000000002,eV,,,,,,,
N$_{2}$,7.3311,eV,,,,,,,
Mg$_{2}$Ge,0,eV,,,,,,,
FePO$_{4}$,2.2248,eV,,,,,,,
TiFeO$_{3}$,1.4865000000000004,eV,,,,,,,
Ba$_{2}$UMnO$_{6}$,1.0436,eV,,,,,,,
BaNdMn$_{2}$O$_{6}$,0.14090000000000025,eV,,,,,,,
MnSnO$_{3}$,0.8775999999999993,eV,,,,,,,
MnSO$_{4}$,3.6106000000000007,eV,,,,,,,
Ca$_{2}$Mn$_{2}$O$_{5}$,0.4343999999999997,eV,,,,,,,
BMo$_{2}$,0.0,eV,,,,,,,
NaMnO$_{2}$,1.2494,eV,,,,,,,
NdMnPO,0.06799999999999962,eV,,,,,,,
MnSn(BO$_{3}$)$_{2}$,2.5552,eV,,,,,,,
Ba$_{2}$MnMoO$_{6}$,1.2569,eV,,,,,,,
MnGeO$_{3}$,1.6731999999999996,eV,,,,,,,
LiMn$_{2}$O$_{4}$,0.0,eV,,,,,,,
NdMnAsO,0.08190000000000008,eV,,,,,,,
NaNdMnWO$_{6}$,2.6106,eV,,,,,,,
Ca$_{2}$MnGaO$_{5}$,0.0,eV,,,,,,,
DyMnO$_{3}$,0.41339999999999977,eV,,,,,,,
TmCd,0.0,eV,,,,,,,
MnNi(BiO$_{3}$)$_{2}$,0.7951999999999995,eV,,,,,,,
Mn$_{4}$Be$_{3}$Si$_{3}$TeO$_{12}$,3.1767000000000003,eV,,,,,,,
Mn$_{2}$Si(P$_{2}$O$_{7}$)$_{2}$,4.0241,eV,,,,,,,
Mn$_{4}$Be$_{3}$Si$_{3}$SeO$_{12}$,3.1839000000000004,eV,,,,,,,
YMnO$_{3}$,0.4051999999999998,eV,,,,,,,
SmMnO$_{3}$,0.2744,eV,,,,,,,
NaLaMnWO$_{6}$,2.6484000000000005,eV,,,,,,,
TbMn$_{2}$O$_{5}$,1.0814999999999997,eV,,,,,,,
LuMnO$_{3}$,0.05859999999999932,eV,,,,,,,
Pd$_{7}$Se$_{4}$,0.0,eV,,,,,,,
TbMnO$_{3}$,0.4016000000000002,eV,,,,,,,
HoMnO$_{3}$,0.43510000000000026,eV,,,,,,,
Mn$_{2}$GeO$_{4}$,1.3602999999999996,eV,,,,,,,
Sr$_{4}$Mn$_{3}$(ClO$_{4}$)$_{2}$,0,eV,,,,,,,
MnSeO$_{3}$,3.2391000000000005,eV,,,,,,,
MnBiO$_{3}$,0.4554999999999998,eV,,,,,,,
YbMnO$_{3}$,0.5091000000000001,eV,,,,,,,
PrMnO$_{3}$,0.057000000000000384,eV,,,,,,,
BaMnP$_{2}$O$_{7}$,4.2123,eV,,,,,,,
RbZn$_{13}$,0.08640000000000025,eV,,,,,,,
DyMn$_{2}$O$_{5}$,1.0799000000000003,eV,,,,,,,
MnSiO$_{3}$,2.6808,eV,,,,,,,
Ba$_{5}$Ho$_{8}$Mn$_{4}$O$_{21}$,2.0882,eV,,,,,,,
Mn(SbO$_{3}$)$_{2}$,0.5120000000000005,eV,,,,,,,
LiMnAsO$_{4}$,1.6879000000000004,eV,,,,,,,
MnPH$_{2}$O$_{5}$,1.4574000000000003,eV,,,,,,,
MnH$_{4}$(BrO)$_{2}$,3.6891,eV,,,,,,,
KMnPH$_{2}$O$_{5}$,3.1330999999999998,eV,,,,,,,
MnSeO$_{4}$,1.2126,eV,,,,,,,
NdMnO$_{3}$,0.07969999999999988,eV,,,,,,,
Sr$_{2}$NiMoO$_{6}$,2.0796000000000006,eV,,,,,,,
MoPbO$_{4}$,2.9184,eV,,,,,,,
VMoO$_{5}$,1.7997999999999998,eV,,,,,,,
KMoP$_{2}$O$_{7}$,3.8588,eV,,,,,,,
NaMoP$_{2}$O$_{7}$,3.9664,eV,,,,,,,
TlMoPO$_{6}$,2.8262,eV,,,,,,,
RbMoAsO$_{6}$,2.4553,eV,,,,,,,
MoCl$_{3}$O,2.4523,eV,,,,,,,
BaMo$_{2}$(P$_{2}$O$_{7}$)$_{2}$,3.9912000000000005,eV,,,,,,,
RbMoP$_{2}$O$_{7}$,3.8594000000000004,eV,,,,,,,
Sm$_{2}$MoO$_{6}$,2.2312,eV,,,,,,,
LiInMo$_{3}$O$_{8}$,0.0,eV,,,,,,,
Na$_{2}$MoO$_{4}$,4.1562,eV,,,,,,,
GaS,1.8818000000000001,eV,,,,,,,
Mo(RhO$_{3}$)$_{2}$,0.0,eV,,,,,,,
MoPb$_{2}$O$_{5}$,2.9254000000000002,eV,,,,,,,
KMo$_{3}$(PO$_{7}$)$_{2}$,2.1751,eV,,,,,,,
CsMoPO$_{6}$,2.8607,eV,,,,,,,
Nd$_{2}$MoO$_{6}$,2.6647,eV,,,,,,,
Cs$_{2}$Mo$_{3}$SeO$_{12}$,2.4941000000000004,eV,,,,,,,
Tb$_{2}$MoO$_{6}$,2.2285,eV,,,,,,,
Li$_{2}$MoO$_{4}$,4.1184,eV,,,,,,,
AgMo$_{3}$(PO$_{7}$)$_{2}$,1.9944000000000002,eV,,,,,,,
Mo(CO)$_{6}$,3.1536,eV,,,,,,,
LiMo$_{3}$P$_{3}$O$_{16}$,1.6482999999999999,eV,,,,,,,
KMoPO$_{6}$,2.5431,eV,,,,,,,
ZnMoO$_{4}$,3.5481000000000003,eV,,,,,,,
MoH$_{8}$S$_{2}$(NO)$_{2}$,2.1419,eV,,,,,,,
LiIn(MoO$_{4}$)$_{2}$,2.827,eV,,,,,,,
Sr$_{2}$NiWO$_{6}$,3.2676,eV,,,,,,,
ThRh$_{3}$,0.0,eV,,,,,,,
La$_{2}$NiO$_{4}$,1.5482000000000014,eV,,,,,,,
La$_{2}$NiO$_{4}$,0.8102999999999998,eV,,,,,,,
Ni$_{2}$As$_{2}$O$_{7}$,2.3518,eV,,,,,,,
NiWO$_{4}$,2.8991,eV,,,,,,,
NiSeO$_{3}$,3.0178,eV,,,,,,,
NiBiO$_{3}$,0.3691000000000004,eV,,,,,,,
LaNiO$_{2}$,0.12420000000000009,eV,,,,,,,
Ba$_{2}$Ni(NO$_{2}$)$_{6}$,0.0,eV,,,,,,,
Sr$_{2}$Ni(NO$_{2}$)$_{6}$,0.0,eV,,,,,,,
ZrHg,0.0,eV,,,,,,,
Ni$_{2}$GeO$_{4}$,2.1356,eV,,,,,,,
K$_{2}$CaNi(NO$_{2}$)$_{6}$,2.0544000000000002,eV,,,,,,,
NiPb$_{2}$(NO$_{2}$)$_{6}$,0.0,eV,,,,,,,
K$_{2}$NiPb(NO$_{2}$)$_{6}$,1.7504,eV,,,,,,,
La$_{2}$NiIrO$_{6}$,0.0,eV,,,,,,,
SrNiP$_{2}$O$_{7}$,3.7087000000000003,eV,,,,,,,
NiH$_{12}$(ClO$_{3}$)$_{2}$,4.0848,eV,,,,,,,
PbF$_{2}$,4.3823,eV,,,,,,,
V$_{2}$Pb$_{3}$O$_{8}$,3.0528999999999997,eV,,,,,,,
Sr$_{3}$V$_{2}$O$_{7}$,0.5916000000000006,eV,,,,,,,
VInO$_{4}$,2.9692999999999996,eV,,,,,,,
Na$_{3}$VP$_{8}$O$_{23}$,2.4261000000000004,eV,,,,,,,
VClO,1.6416999999999997,eV,,,,,,,
VPbO$_{3}$,1.4516999999999998,eV,,,,,,,
AsPd$_{5}$,0.0,eV,,,,,,,
Eu$_{2}$VO$_{4}$,5.999999999994898E-4,eV,,,,,,,
UV$_{2}$O$_{6}$,0.4112,eV,,,,,,,
VBiO$_{4}$,2.2590000000000003,eV,,,,,,,
Lu$_{2}$V$_{2}$O$_{7}$,1.1487999999999996,eV,,,,,,,
SrV$_{6}$O$_{11}$,0.0,eV,,,,,,,
V$_{4}$Zn$_{3}$(PO$_{4}$)$_{6}$,1.8885000000000005,eV,,,,,,,
As$_{2}$Pt,0.0801999999999996,eV,,,,,,,
VCdO$_{3}$,0.3733000000000004,eV,,,,,,,
Na$_{2}$CaV$_{4}$O$_{12}$,2.9046,eV,,,,,,,
RbV$_{3}$(SeO$_{6}$)$_{2}$,2.3219000000000003,eV,,,,,,,
SmVO$_{3}$,0.10890000000000022,eV,,,,,,,
CeVO$_{3}$,0.017800000000001148,eV,,,,,,,
Mg$_{2}$VBiO$_{6}$,3.2573,eV,,,,,,,
Mg$_{3}$P$_{2}$,1.6067999999999998,eV,,,,,,,
GdVO$_{4}$,2.9685,eV,,,,,,,
V$_{2}$Pb$_{3}$O$_{8}$,2.9798999999999998,eV,,,,,,,
K$_{2}$RbGdV$_{2}$O$_{8}$,3.3851999999999998,eV,,,,,,,
DyVO$_{3}$,1.5488,eV,,,,,,,
VO$_{2}$,1.3754999999999997,eV,,,,,,,
V$_{2}$PbO$_{6}$,2.2575000000000003,eV,,,,,,,
V$_{2}$WO$_{6}$,1.0726999999999998,eV,,,,,,,
CrPt$_{3}$,0.0,eV,,,,,,,
CaVO$_{3}$,0.23540000000000028,eV,,,,,,,
V$_{2}$P$_{4}$PbO$_{14}$,2.0420999999999996,eV,,,,,,,
RbVP$_{2}$O$_{7}$,1.9475,eV,,,,,,,
TlVO$_{3}$,2.9722,eV,,,,,,,
V(PO$_{3}$)$_{3}$,2.2644,eV,,,,,,,
CsV$_{3}$(SeO$_{6}$)$_{2}$,2.3071,eV,,,,,,,
NaV$_{6}$O$_{11}$,0.2906000000000004,eV,,,,,,,
BaVPO$_{6}$,2.4690000000000003,eV,,,,,,,
KV$_{6}$O$_{11}$,0.0,eV,,,,,,,
Na$_{5}$VO$_{5}$,2.239,eV,,,,,,,
SrVPO$_{6}$,2.4421,eV,,,,,,,
NaVP$_{2}$O$_{7}$,2.1109999999999998,eV,,,,,,,
CaV$_{4}$(AgO$_{6}$)$_{2}$,1.9174000000000002,eV,,,,,,,
KTh$_{2}$V$_{3}$O$_{12}$,3.3008999999999995,eV,,,,,,,
Ca$_{2}$Si,0.2911999999999999,eV,,,,,,,
KVP$_{2}$O$_{7}$,2.0684,eV,,,,,,,
Ba$_{3}$WO$_{6}$,2.9798,eV,,,,,,,
MgPb$_{2}$WO$_{6}$,2.7567999999999993,eV,,,,,,,
W$_{3}$O,0.0,eV,,,,,,,
Cs(WO$_{3}$)$_{2}$,0.0,eV,,,,,,,
PbWO$_{4}$,3.5629999999999997,eV,,,,,,,
Bi$_{2}$WO$_{6}$,1.9044999999999996,eV,,,,,,,
In$_{6}$WO$_{12}$,2.3918999999999997,eV,,,,,,,
Na$_{2}$W$_{2}$O$_{7}$,2.4570999999999996,eV,,,,,,,
Nd$_{2}$WO$_{6}$,3.7285,eV,,,,,,,
Er$_{2}$WO$_{6}$,3.8181999999999996,eV,,,,,,,
Pb$_{2}$WO$_{5}$,3.0894000000000004,eV,,,,,,,
Nd$_{2}$WO$_{6}$,3.1133,eV,,,,,,,
Nd$_{2}$(WO$_{4}$)$_{3}$,3.9463,eV,,,,,,,
Er$_{2}$WO$_{6}$,3.6861000000000006,eV,,,,,,,
La$_{2}$(WO$_{4}$)$_{3}$,4.048100000000001,eV,,,,,,,
BeTe,2.0176,eV,,,,,,,
Bi(PdO$_{2}$)$_{2}$,0.0,eV,,,,,,,
Si$_{4}$Cu$_{5}$O$_{14}$,0.0,eV,,,,,,,
BiO$_{2}$,0.0,eV,,,,,,,
NbO$_{2}$,0.0,eV,,,,,,,
LuHg,0.06780000000000008,eV,,,,,,,
Ba$_{2}$(CuO$_{2}$)$_{3}$,0.0,eV,,,,,,,
PuPt$_{3}$,0.0,eV,,,,,,,
NdGa$_{2}$,0.0,eV,,,,,,,
Li$_{4}$(CuO$_{2}$)$_{3}$,0.0,eV,,,,,,,
PrAg,0.0,eV,,,,,,,
Li$_{15}$Bi$_{4}$(PdO$_{10}$)$_{2}$,0.03420000000000001,eV,,,,,,,
TiO$_{2}$,1.712,eV,,,,,,,
PrRh$_{2}$,0.0,eV,,,,,,,
ScCo$_{2}$,0.0,eV,,,,,,,
Li$_{2}$Te,2.4981999999999998,eV,,,,,,,
Ti(SiO$_{3}$)$_{2}$,3.3233000000000006,eV,,,,,,,
Y$_{2}$Ti$_{2}$S$_{2}$O$_{5}$,0.7881,eV,,,,,,,
Er$_{2}$Co$_{17}$,0.0,eV,,,,,,,
Li$_{3}$(CuO$_{2}$)$_{2}$,0.0,eV,,,,,,,
PrTe,0.0,eV,,,,,,,
BiO$_{2}$,0,eV,,,,,,,
GaAs,0.18869999999999987,eV,,,,,,,
Ni$_{2}$B,0.0,eV,,,,,,,
NdS$_{2}$,0.0,eV,,,,,,,
LiCuO$_{2}$,0.0,eV,,,,,,,
CuO$_{2}$,0.0,eV,,,,,,,
Y$_{5}$Si$_{3}$,0.0,eV,,,,,,,
CuPO$_{4}$F,0.0,eV,,,,,,,
Li(CuO$_{2}$)$_{2}$,0.0,eV,,,,,,,
NdF$_{3}$,7.6164000000000005,eV,,,,,,,
VTc,0.0,eV,,,,,,,
Li$_{2}$TiPCO$_{7}$,0.23119999999999985,eV,,,,,,,
Li$_{2}$TiPO$_{4}$F,0.0,eV,,,,,,,
LiCuPO$_{4}$F,0.0,eV,,,,,,,
LiTiO$_{2}$,0.0,eV,,,,,,,
LiTiPCO$_{7}$,2.8265000000000002,eV,,,,,,,
BeO,7.4597999999999995,eV,,,,,,,
LiTiPO$_{4}$F,0.15500000000000025,eV,,,,,,,
TiO$_{2}$,2.4516,eV,,,,,,,
TiPO$_{4}$,0.0,eV,,,,,,,
TiPO$_{4}$F,0.0,eV,,,,,,,
Zr$_{2}$Be$_{17}$,0.0,eV,,,,,,,
LiCuPO$_{4}$,0.0,eV,,,,,,,
YbHg,0.0,eV,,,,,,,
Li$_{2}$CuPCO$_{7}$,0.0,eV,,,,,,,
NpC,0.0,eV,,,,,,,
Li$_{3}$CuPCO$_{7}$,0.1737000000000002,eV,,,,,,,
Li$_{3}$TiPCO$_{7}$,0.10909999999999975,eV,,,,,,,
LiCuPCO$_{7}$,0,eV,,,,,,,
AlCl$_{3}$,5.263,eV,,,,,,,
YbPd,0.0,eV,,,,,,,
AlCl$_{3}$,0.0,eV,,,,,,,
Li(CoO$_{2}$)$_{2}$,0,eV,,,,,,,
Co(WO$_{4}$)$_{2}$,0.0,eV,,,,,,,
CoPO$_{4}$F,0.0,eV,,,,,,,
Co$_{2}$SiO$_{4}$,2.4800999999999997,eV,,,,,,,
CoH$_{4}$(BrO)$_{2}$,2.4167,eV,,,,,,,
CoO$_{2}$,1.2389,eV,,,,,,,
CoP$_{2}$(H$_{4}$O$_{5}$)$_{2}$,3.259,eV,,,,,,,
V$_{2}$CoP$_{2}$(H$_{4}$O$_{7}$)$_{2}$,2.3807,eV,,,,,,,
La$_{4}$CoO$_{8}$,0.29719999999999924,eV,,,,,,,
LiCoPCO$_{7}$,0.20049999999999998,eV,,,,,,,
Li$_{2}$CoPCO$_{7}$,0.7795999999999998,eV,,,,,,,
LiCo(WO$_{4}$)$_{2}$,1.0885000000000002,eV,,,,,,,
CoH$_{2}$SeO$_{5}$,2.4837,eV,,,,,,,
CoSiH$_{12}$(OF)$_{6}$,0.0,eV,,,,,,,
CoH$_{8}$(IO$_{5}$)$_{2}$,3.0703,eV,,,,,,,
LiCoPO$_{4}$F,0.0,eV,,,,,,,
Li$_{2}$CoPO$_{4}$F,2.8292,eV,,,,,,,
Co(HO)$_{2}$,0,eV,,,,,,,
Li$_{3}$CoPCO$_{7}$,2.7458,eV,,,,,,,
CoH$_{4}$(ClO)$_{2}$,2.8076,eV,,,,,,,
CoH$_{4}$(CO$_{3}$)$_{2}$,2.4737,eV,,,,,,,
CoH$_{8}$(BrO$_{2}$)$_{2}$,2.9713000000000003,eV,,,,,,,
CoP$_{4}$H$_{16}$(NO$_{8}$)$_{2}$,3.3299000000000003,eV,,,,,,,
KCrClO$_{3}$,2.7828999999999997,eV,,,,,,,
CrH$_{36}$C$_{12}$S$_{6}$(ClO$_{2}$)$_{3}$,2.6428,eV,,,,,,,
NaHg,0.0,eV,,,,,,,
NdTe$_{2}$,0.0,eV,,,,,,,
CrH$_{17}$N$_{4}$Cl$_{2}$O$_{3}$,3.6068,eV,,,,,,,
LiCrPO$_{4}$F,2.2771,eV,,,,,,,
Cr(SiO$_{3}$)$_{2}$,0.5258999999999996,eV,,,,,,,
CrHO$_{2}$,2.4303,eV,,,,,,,
Li$_{2}$CrPCO$_{7}$,3.132,eV,,,,,,,
K$_{2}$MgCr$_{2}$(H$_{2}$O$_{5}$)$_{2}$,0.014599999999999946,eV,,,,,,,
KCr$_{3}$H$_{6}$(SO$_{7}$)$_{2}$,2.5237,eV,,,,,,,
LiCrPO$_{4}$,2.0877999999999997,eV,,,,,,,
Li$_{2}$CrPO$_{4}$F,2.8005999999999998,eV,,,,,,,
DyCo$_{5}$,0.0,eV,,,,,,,
Li$_{3}$CrPCO$_{7}$,2.8924000000000003,eV,,,,,,,
CsCrH$_{18}$N$_{6}$(ClO$_{2}$)$_{4}$,3.9754,eV,,,,,,,
CsCrH$_{18}$Br$_{2}$N$_{6}$(ClO$_{4}$)$_{2}$,3.5666,eV,,,,,,,
KCrH$_{18}$N$_{6}$(ClO$_{2}$)$_{4}$,3.819,eV,,,,,,,
KCrH$_{18}$N$_{6}$(ClO$_{2}$)$_{4}$,3.7571,eV,,,,,,,
LiFePO$_{4}$F,2.1778000000000004,eV,,,,,,,
Li(FeO$_{2}$)$_{2}$,0.0,eV,,,,,,,
FeO$_{2}$,0.0,eV,,,,,,,
FePO$_{4}$F,0.008300000000000196,eV,,,,,,,
TeO$_{3}$,1.1502999999999997,eV,,,,,,,
MgFe$_{2}$P$_{2}$(HO)$_{18}$,2.3426,eV,,,,,,,
FeGeO$_{3}$,1.5711999999999997,eV,,,,,,,
Fe(SiO$_{3}$)$_{2}$,0.0,eV,,,,,,,
FeAs$_{2}$O$_{7}$,0.0,eV,,,,,,,
FeMoClO$_{4}$,2.1103,eV,,,,,,,
FeP$_{2}$O$_{7}$,0.053300000000000014,eV,,,,,,,
FePO$_{4}$,1.5789,eV,,,,,,,
Li$_{2}$FePCO$_{7}$,2.4568,eV,,,,,,,
LiFePCO$_{7}$,0,eV,,,,,,,
HfBe$_{2}$,0.0,eV,,,,,,,
FeH$_{8}$(BrO$_{2}$)$_{2}$,3.7192,eV,,,,,,,
VFeH$_{2}$O$_{5}$,2.2881,eV,,,,,,,
NaFe(WO$_{4}$)$_{2}$,2.5429,eV,,,,,,,
Li$_{3}$FePCO$_{7}$,4.2226,eV,,,,,,,
Fe(WO$_{4}$)$_{2}$,0.0,eV,,,,,,,
Na$_{2}$Li$_{2}$FeO$_{4}$,0.28979999999999995,eV,,,,,,,
LiMnO$_{2}$,0,eV,,,,,,,
MnH$_{4}$(CO$_{3}$)$_{2}$,2.3683,eV,,,,,,,
MnTl$_{2}$H$_{2}$OF$_{5}$,1.218,eV,,,,,,,
LiMnO$_{2}$,1.1382000000000003,eV,,,,,,,
Ca$_{3}$MnNiO$_{6}$,2.198,eV,,,,,,,
KMnO$_{2}$,0,eV,,,,,,,
MnO$_{2}$,1.5739,eV,,,,,,,
Mn(HO)$_{2}$,1.6065,eV,,,,,,,
MnO$_{2}$,1.5791000000000002,eV,,,,,,,
MnPO$_{4}$F,0.0028000000000000247,eV,,,,,,,
LiMnPO$_{4}$F,0.0,eV,,,,,,,
Mn$_{2}$Tl$_{2}$O$_{7}$,0.0,eV,,,,,,,
CsMnP$_{3}$HO$_{10}$,0.8596000000000001,eV,,,,,,,
Ca$_{2}$MnP$_{2}$(H$_{2}$O$_{5}$)$_{2}$,4.1295,eV,,,,,,,
MnAsH$_{2}$O$_{5}$,1.4118,eV,,,,,,,
MnO$_{2}$,1.6123,eV,,,,,,,
MnVO$_{4}$,0.03269999999999995,eV,,,,,,,
TlSn,0.0,eV,,,,,,,
LiMnPCO$_{7}$,0.9099999999999999,eV,,,,,,,
Li$_{2}$MnPO$_{4}$F,3.6757,eV,,,,,,,
Li$_{2}$MnPCO$_{7}$,0.8778999999999999,eV,,,,,,,
Rb$_{2}$MnH$_{2}$OF$_{5}$,1.3359999999999999,eV,,,,,,,
MnH$_{2}$(SO$_{4}$)$_{2}$,4.6845,eV,,,,,,,
RbMnH$_{4}$Cl$_{3}$O$_{2}$,3.9221,eV,,,,,,,
LiMnH$_{6}$O$_{7}$,2.1661,eV,,,,,,,
Mn$_{2}$NiO$_{6}$,1.0147,eV,,,,,,,
MoO$_{2}$,0.8026999999999997,eV,,,,,,,
ScMo$_{3}$O$_{8}$,0.9518000000000004,eV,,,,,,,
Li(MoO$_{2}$)$_{2}$,1.4749000000000003,eV,,,,,,,
MoP$_{2}$O$_{7}$,1.9978999999999998,eV,,,,,,,
MoO$_{2}$,1.2595,eV,,,,,,,
YMo$_{3}$O$_{8}$,1.2228000000000003,eV,,,,,,,
SmMg,0.11509999999999998,eV,,,,,,,
Mo$_{3}$O$_{8}$,0.0,eV,,,,,,,
La$_{2}$MoO$_{6}$,2.5115999999999996,eV,,,,,,,
MgMoH$_{2}$O$_{5}$,4.0949,eV,,,,,,,
MoH$_{8}$(NO$_{2}$)$_{2}$,3.7408,eV,,,,,,,
LiMo$_{3}$O$_{8}$,0.0,eV,,,,,,,
LiNiO$_{2}$,0.3160000000000003,eV,,,,,,,
SmNiO$_{3}$,0.0,eV,,,,,,,
NiPO$_{4}$F,0,eV,,,,,,,
SeS,0.0,eV,,,,,,,
NdNiO$_{3}$,0.0,eV,,,,,,,
LiNiO$_{2}$,0.0,eV,,,,,,,
NiO$_{2}$,1.5194999999999999,eV,,,,,,,
NiO$_{2}$,1.4989000000000001,eV,,,,,,,
LiNiO$_{2}$,0.5722,eV,,,,,,,
NiO$_{2}$,0.019699999999999995,eV,,,,,,,
NiH$_{2}$SeO$_{5}$,3.0548,eV,,,,,,,
Sr$_{3}$NiPbO$_{6}$,0.8557999999999999,eV,,,,,,,
LiNiPCO$_{7}$,0.0,eV,,,,,,,
LiNi(WO$_{4}$)$_{2}$,0.0,eV,,,,,,,
NiPO$_{4}$,0.0,eV,,,,,,,
Li$_{2}$NiPO$_{4}$F,3.8155,eV,,,,,,,
LiNiO$_{2}$,0,eV,,,,,,,
NiSnH$_{12}$(OF)$_{6}$,3.6544,eV,,,,,,,
V$_{2}$NiP$_{2}$(H$_{4}$O$_{7}$)$_{2}$,2.3555,eV,,,,,,,
NiH$_{12}$(N$_{3}$O$_{2}$)$_{2}$,0.6323,eV,,,,,,,
Ni$_{2}$P$_{3}$O$_{10}$,0.0,eV,,,,,,,
Li$_{2}$NiPCO$_{7}$,0,eV,,,,,,,
Li$_{3}$NiPCO$_{7}$,4.0127,eV,,,,,,,
LiNiAsO$_{4}$,2.8263,eV,,,,,,,
LiNiPO$_{4}$,3.9578999999999995,eV,,,,,,,
VO$_{2}$,0.3971,eV,,,,,,,
VPO$_{4}$F,0.0,eV,,,,,,,
V$_{3}$H$_{4}$NO$_{8}$,2.1322,eV,,,,,,,
LiVPO$_{4}$F,1.6248000000000002,eV,,,,,,,
V$_{2}$O$_{5}$,2.1562,eV,,,,,,,
VO$_{2}$,1.2438,eV,,,,,,,
KVBP$_{2}$HO$_{9}$,2.036,eV,,,,,,,
VH$_{12}$(ClO$_{2}$)$_{3}$,2.2597,eV,,,,,,,
VSO$_{5}$,1.4931999999999999,eV,,,,,,,
K$_{2}$VH$_{2}$OF$_{5}$,2.2231,eV,,,,,,,
LiVPCO$_{7}$,1.8586,eV,,,,,,,
Li$_{2}$VPO$_{4}$F,3.1632,eV,,,,,,,
VP$_{2}$O$_{7}$,1.518,eV,,,,,,,
V(SiO$_{3}$)$_{2}$,1.4068,eV,,,,,,,
Li$_{3}$V$_{2}$(GeO$_{5}$)$_{2}$,0.0,eV,,,,,,,
LiVPO$_{4}$,2.9093,eV,,,,,,,
Li$_{3}$VPCO$_{7}$,2.8329999999999997,eV,,,,,,,
Li$_{2}$VPCO$_{7}$,2.0513000000000003,eV,,,,,,,
SrMg,0.0,eV,,,,,,,
V$_{2}$O$_{5}$,2.3329,eV,,,,,,,
Li$_{3}$V$_{2}$(SiO$_{5}$)$_{2}$,0,eV,,,,,,,
V$_{2}$O$_{5}$,1.6586,eV,,,,,,,
LiWO$_{2}$,2.0122999999999998,eV,,,,,,,
WO$_{2}$,0.0,eV,,,,,,,
NaIn(WO$_{4}$)$_{2}$,3.4845,eV,,,,,,,
S$_{2}$N,1.6967999999999999,eV,,,,,,,
Li$_{2}$PWCO$_{7}$,3.5678,eV,,,,,,,
PWO$_{4}$F,0.0,eV,,,,,,,
LiPWO$_{4}$F,3.1005000000000003,eV,,,,,,,
PWO$_{4}$,2.9297,eV,,,,,,,
Pr(WO$_{4}$)$_{2}$,0.0574,eV,,,,,,,
Li$_{3}$PWCO$_{7}$,0.7744999999999997,eV,,,,,,,
Co$_{2}$P$_{3}$O$_{10}$,0.08229999999999982,eV,,,,,,,
CoBiPO$_{5}$,2.8385999999999996,eV,,,,,,,
PuSb,0,eV,,,,,,,
LiCo$_{2}$P$_{3}$O$_{10}$,2.7489000000000003,eV,,,,,,,
Fe$_{2}$(PO$_{4}$)$_{3}$,0.0,eV,,,,,,,
Fe(SeO$_{3}$)$_{2}$,0.0,eV,,,,,,,
Fe(PO$_{3}$)$_{3}$,2.8437,eV,,,,,,,
Li$_{3}$MnPCO$_{7}$,3.6835000000000004,eV,,,,,,,
EuMnO$_{3}$,0.0,eV,,,,,,,