formula,Property Band Gap,Property Band Gap units,Property Band gap,Property Band gap units,Temperature (Property Band gap),Temperature (Property Band gap) units,Property Color,Temperature (Property Color),Temperature (Property Color) units
Li$_{2}$MoF$_{6}$,2.2737,eV,,,,,,,
Sr$_{2}$LiSiO$_{4}$F,4.7908,eV,,,,,,,
SiO$_{2}$,6.180999999999999,eV,,,,,,,
K$_{2}$Cu$_{3}$(SeO$_{3}$)$_{4}$,0.08140000000000014,eV,,,,,,,
SrDy$_{2}$O$_{4}$,3.6952,eV,,,,,,,
Sr$_{2}$Co$_{2}$O$_{5}$,0.16149999999999975,eV,,,,,,,
MgAs$_{2}$(XeF$_{8}$)$_{2}$,2.9713000000000003,eV,,,,,,,
Eu(IO$_{3}$)$_{3}$,0.0,eV,,,,,,,
As$_{2}$H$_{3}$CF$_{9}$,4.3411,eV,,,,,,,
KClO$_{3}$,5.5613,eV,,,,,,,
Rb$_{2}$LiTaS$_{4}$,2.7182,eV,,,,,,,
Na$_{5}$FeS$_{4}$,0.008300000000000196,eV,,,,,,,
Pr$_{6}$S$_{4}$N$_{3}$Cl,1.1679999999999997,eV,,,,,,,
SiO$_{2}$,5.68,eV,,,,,,,
Cs$_{3}$Ta$_{2}$S$_{11}$,1.6882999999999997,eV,,,,,,,
CuMoF$_{6}$,0,eV,,,,,,,
AgBiSCl$_{2}$,1.0686999999999998,eV,,,,,,,
Dy$_{3}$S$_{4}$,0.0,eV,,,,,,,
NaLi$_{2}$(RuO$_{2}$)$_{6}$,0.0,eV,,,,,,,
NaFeF$_{4}$,3.3274,eV,,,,,,,
Yb$_{3}$B$_{5}$O$_{12}$,0.0,eV,,,,,,,
Ho(CrSi)$_{2}$,0.0,eV,,,,,,,
Si(Sn$_{3}$O$_{4}$)$_{2}$,1.9004000000000003,eV,,,,,,,
Cs$_{3}$Ga$_{2}$F$_{9}$,5.8466000000000005,eV,,,,,,,
ZnS,2.0379,eV,,,,,,,
SrB$_{2}$F$_{8}$,8.145199999999999,eV,,,,,,,
Nd$_{6}$Nb$_{5}$S$_{16}$,0.1554000000000002,eV,,,,,,,
DyTiClO$_{3}$,3.1637999999999997,eV,,,,,,,
YSeF,1.5591999999999997,eV,,,,,,,
AuCS$_{2}$Cl$_{3}$,1.9556999999999998,eV,,,,,,,
Ga$_{3}$Pb$_{5}$F$_{19}$,4.7152,eV,,,,,,,
BaHgO$_{2}$,2.1654,eV,,,,,,,
RbTl(SO$_{4}$)$_{2}$,1.9822000000000002,eV,,,,,,,
BaCa(PO$_{3}$)$_{4}$,5.5237,eV,,,,,,,
Sr$_{2}$Sc$_{2}$B$_{4}$O$_{11}$,4.3418,eV,,,,,,,
Na$_{2}$BHO$_{3}$,3.8045999999999998,eV,,,,,,,
MgH$_{6}$(CO$_{3}$)$_{2}$,4.9673,eV,,,,,,,
Cs$_{2}$Zr(IO$_{3}$)$_{6}$,3.4495,eV,,,,,,,
GeXeF$_{10}$,2.3433,eV,,,,,,,
SiO$_{2}$,4.3926,eV,,,,,,,
NaZr$_{2}$FeF$_{11}$,3.4179,eV,,,,,,,
GdSI,1.5047000000000001,eV,,,,,,,
Li$_{2}$Ca$_{4}$Si$_{4}$O$_{13}$,4.456,eV,,,,,,,
BaZr(PO$_{4}$)$_{2}$,4.156000000000001,eV,,,,,,,
Na$_{3}$Ga$_{3}$(TeO$_{6}$)$_{2}$,1.8466,eV,,,,,,,
NaAsO$_{2}$,3.6341,eV,,,,,,,
SnCSNF,2.8283000000000005,eV,,,,,,,
H$_{9}$C$_{3}$N$_{3}$O$_{2}$,4.8956,eV,,,,,,,
ZnS,2.0281000000000002,eV,,,,,,,
AsSeS$_{3}$N$_{5}$F$_{6}$,2.5393,eV,,,,,,,
ZnS,2.0257000000000005,eV,,,,,,,
LiUBO$_{5}$,1.9059,eV,,,,,,,
Zn$_{2}$SiO$_{4}$,2.6857,eV,,,,,,,
Si(AgO)$_{4}$,0.6680999999999999,eV,,,,,,,
LiB(CO$_{2}$)$_{4}$,3.3042000000000002,eV,,,,,,,
SrAl$_{4}$O$_{7}$,3.2333000000000003,eV,,,,,,,
Na$_{7}$Al$_{3}$O$_{8}$,3.1165000000000003,eV,,,,,,,
YSeO$_{3}$F,4.2667,eV,,,,,,,
CdP$_{2}$Xe$_{5}$F$_{22}$,2.4129,eV,,,,,,,
SiPb$_{4}$(BrO)$_{4}$,3.1492,eV,,,,,,,
ZnAs$_{2}$C$_{6}$S$_{12}$N$_{12}$(OF$_{2}$)$_{6}$,2.2259,eV,,,,,,,
V$_{6}$Zn$_{3}$(FeO$_{6}$)$_{4}$,2.1574,eV,,,,,,,
Li$_{2}$ZrF$_{6}$,5.481199999999999,eV,,,,,,,
Cs$_{2}$Si$_{8}$Cu$_{2}$O$_{19}$,1.1123999999999998,eV,,,,,,,
BaAl$_{2}$(GeO$_{4}$)$_{2}$,3.936,eV,,,,,,,
Pr$_{3}$Si$_{2}$S$_{8}$Cl,2.7393,eV,,,,,,,
Pr$_{3}$U(ClO$_{2}$)$_{3}$,1.4230999999999998,eV,,,,,,,
RbNaTiO$_{3}$,3.4598999999999998,eV,,,,,,,
P$_{2}$SN$_{3}$Cl$_{5}$O,4.0172,eV,,,,,,,
Ba$_{3}$NiIr$_{2}$O$_{9}$,0.0,eV,,,,,,,
C$_{4}$O$_{5}$F$_{6}$,5.3178,eV,,,,,,,
SrSbSe$_{2}$F,0.12010000000000032,eV,,,,,,,
Na$_{2}$AlB(As$_{2}$O$_{7}$)$_{2}$,2.7451,eV,,,,,,,
FeF$_{3}$,3.1061,eV,,,,,,,
Na$_{2}$Si$_{3}$O$_{7}$,4.3033,eV,,,,,,,
AgSbC$_{2}$N$_{2}$(ClF$_{3}$)$_{2}$,3.637,eV,,,,,,,
Cu(CO)$_{4}$,0.0,eV,,,,,,,
Rb$_{3}$Y$_{2}$(BO$_{3}$)$_{3}$,4.3878,eV,,,,,,,
ZnS,2.0323,eV,,,,,,,
Bi$_{2}$CO$_{5}$,2.2747,eV,,,,,,,
K$_{4}$U$_{5}$Te$_{2}$O$_{21}$,1.7541,eV,,,,,,,
CaB$_{4}$O$_{7}$,5.6352,eV,,,,,,,
K$_{9}$Li$_{3}$I$_{2}$O$_{13}$,0.7542,eV,,,,,,,
HIO$_{3}$,3.0606,eV,,,,,,,
SiO$_{2}$,5.8913,eV,,,,,,,
CSNF$_{5}$,5.4307,eV,,,,,,,
Ag$_{2}$S,1.4054000000000002,eV,,,,,,,
NaB$_{3}$O$_{5}$,5.2407,eV,,,,,,,
Na$_{5}$Ca$_{4}$P$_{4}$O$_{16}$F,4.7165,eV,,,,,,,
Li$_{2}$MnF$_{5}$,1.8414,eV,,,,,,,
In$_{2}$GaBiS$_{6}$,1.8451999999999997,eV,,,,,,,
Na$_{2}$CaMg(PO$_{4}$)$_{2}$,5.0991,eV,,,,,,,
KAs$_{4}$ClO$_{6}$,3.0465,eV,,,,,,,
Rb$_{3}$Sb$_{5}$O$_{14}$,1.1656000000000004,eV,,,,,,,
CaCO$_{3}$,4.9926,eV,,,,,,,
Na$_{3}$Ce$_{2}$C$_{4}$O$_{12}$F,0.25009999999999977,eV,,,,,,,
KLiYF$_{5}$,7.1638,eV,,,,,,,
CuC$_{3}$(OF)$_{3}$,2.789,eV,,,,,,,
Cs$_{5}$Nb$_{2}$S$_{4}$Br$_{9}$,1.7892000000000001,eV,,,,,,,
YF$_{3}$,5.617299999999999,eV,,,,,,,
Xe$_{2}$NO$_{2}$F$_{13}$,2.8973000000000004,eV,,,,,,,
Mn$_{3}$(AgO$_{2}$)$_{4}$,0.6100000000000003,eV,,,,,,,
La$_{3}$Si$_{2}$S$_{8}$Cl,2.6118000000000006,eV,,,,,,,
Dy$_{3}$S$_{3}$N,1.3945000000000003,eV,,,,,,,
KSrB$_{5}$O$_{9}$,5.1442000000000005,eV,,,,,,,
Tm$_{2}$O$_{3}$,4.1691,eV,,,,,,,
K$_{4}$Pt$_{2}$(SO$_{4}$)$_{5}$,1.7610999999999999,eV,,,,,,,
Li$_{3}$Fe$_{2}$(AsO$_{4}$)$_{3}$,2.6208,eV,,,,,,,
SiO$_{2}$,3.5943,eV,,,,,,,
Na$_{3}$BeAl(SiO$_{4}$)$_{2}$,4.3245,eV,,,,,,,
EuBa$_{3}$Ru$_{2}$O$_{9}$,0,eV,,,,,,,
SiO$_{2}$,5.72,eV,,,,,,,
KRb$_{2}$CrF$_{6}$,4.1253,eV,,,,,,,
HoCu(WO$_{4}$)$_{2}$,1.1334999999999997,eV,,,,,,,
S,2.3573,eV,,,,,,,
S$_{4}$N$_{5}$Cl,2.1844,eV,,,,,,,
Rb$_{2}$Al$_{2}$Sb$_{2}$O$_{7}$,3.5936000000000003,eV,,,,,,,
Bi$_{6}$As$_{9}$Se$_{4}$S$_{10}$(O$_{4}$F$_{13}$)$_{5}$,2.0126,eV,,,,,,,
ZnS,2.0261,eV,,,,,,,
Sc(PO$_{3}$)$_{3}$,5.0599,eV,,,,,,,
Ba$_{2}$AlInO$_{5}$,2.0183,eV,,,,,,,
Na$_{2}$TiSi$_{4}$O$_{11}$,2.7322999999999995,eV,,,,,,,
MnAlF$_{5}$,4.8201,eV,,,,,,,
NaBi$_{2}$Sb$_{3}$O$_{11}$,2.4062,eV,,,,,,,
Li$_{2}$ReO$_{3}$,0.0,eV,,,,,,,
SrMgF$_{4}$,6.2299999999999995,eV,,,,,,,
Ba$_{3}$Sn$_{2}$S$_{7}$,2.1916999999999995,eV,,,,,,,
BaS$_{3}$,1.0260999999999996,eV,,,,,,,
FeS$_{3}$(NCl$_{2}$)$_{2}$,1.2118,eV,,,,,,,
SiH$_{12}$C$_{2}$(NF$_{3}$)$_{2}$,6.8492,eV,,,,,,,
Ag$_{5}$GeO$_{4}$,0.6784999999999999,eV,,,,,,,
Li$_{6}$CaCeO$_{6}$,2.4639999999999995,eV,,,,,,,
CuBi$_{2}$(SeO$_{3}$)$_{4}$,0.5594000000000001,eV,,,,,,,
NdPH$_{5}$CO$_{7}$,3.8713,eV,,,,,,,
Na$_{2}$Si$_{2}$O$_{5}$,4.4459,eV,,,,,,,
LiAlS$_{3}$(Cl$_{2}$O$_{3}$)$_{2}$,2.2856,eV,,,,,,,
Ba$_{3}$NaBiO$_{6}$,1.9255,eV,,,,,,,
SiO$_{2}$,5.198,eV,,,,,,,
Cs$_{2}$NaFeF$_{6}$,4.0522,eV,,,,,,,
Li$_{2}$Co(WO$_{4}$)$_{2}$,2.6607,eV,,,,,,,
Ba$_{5}$Fe$_{5}$O$_{14}$,0,eV,,,,,,,
TeAs(ClF$_{2}$)$_{3}$,3.9711,eV,,,,,,,
K$_{2}$HgC$_{2}$S$_{2}$(BrN)$_{2}$,2.3991,eV,,,,,,,
AsS,2.0317,eV,,,,,,,
Cs$_{2}$Ga$_{2}$B$_{2}$O$_{7}$,3.7986,eV,,,,,,,
Sr$_{4}$Pt$_{4}$PbO$_{11}$,0.5728999999999997,eV,,,,,,,
V$_{7}$O$_{13}$,0.6304000000000003,eV,,,,,,,
K$_{2}$ZnCu$_{3}$P$_{3}$O$_{12}$F,0.0,eV,,,,,,,
Na$_{3}$Ce(PO$_{4}$)$_{2}$,0.26319999999999943,eV,,,,,,,
YP$_{5}$O$_{14}$,5.2522,eV,,,,,,,
Hg$_{3}$AsO$_{4}$,1.7517,eV,,,,,,,
CaTaNO$_{2}$,1.6121999999999996,eV,,,,,,,
Ti$_{4}$S$_{8}$Br$_{6}$O,1.3934,eV,,,,,,,
SrGaBO$_{4}$,3.8463,eV,,,,,,,
Ag$_{2}$BrNO$_{3}$,1.8191000000000002,eV,,,,,,,
Pr(IO$_{3}$)$_{3}$,3.3438000000000003,eV,,,,,,,
K$_{2}$ReCl$_{5}$O,0.6691,eV,,,,,,,
Rb$_{2}$NaNiF$_{6}$,0.0,eV,,,,,,,
Na$_{2}$SrAl$_{4}$(SiO$_{4}$)$_{4}$,4.7044999999999995,eV,,,,,,,
Ni$_{18}$Bi$_{3}$AsS$_{16}$,0.0,eV,,,,,,,
BiSeClO$_{3}$,3.5894,eV,,,,,,,
ZnS,2.0280000000000005,eV,,,,,,,
Ca$_{2}$SiCl$_{2}$O$_{3}$,5.1049,eV,,,,,,,
CdHgC$_{4}$(SN)$_{4}$,2.4633,eV,,,,,,,
CdHg$_{2}$SeO$_{6}$,0.9315,eV,,,,,,,
CaSO$_{4}$,5.6869,eV,,,,,,,
K$_{2}$U$_{3}$(IO$_{5}$)$_{4}$,1.8921000000000001,eV,,,,,,,
Ba$_{2}$LaSbO$_{6}$,3.8413000000000004,eV,,,,,,,
SiO$_{2}$,2.8049000000000004,eV,,,,,,,
Ba$_{17}$Dy$_{16}$Zn$_{8}$Pt$_{4}$O$_{57}$,2.2897,eV,,,,,,,
BiSeClO$_{3}$,3.5228,eV,,,,,,,
EuClF,0.8959000000000001,eV,,,,,,,
PCF$_{3}$,3.2147,eV,,,,,,,
Cs$_{3}$ZnI$_{4}$NO$_{3}$,3.147,eV,,,,,,,
UTl$_{2}$(TeO$_{4}$)$_{2}$,1.842,eV,,,,,,,
Rb$_{10}$Si$_{6}$O$_{17}$,3.4663,eV,,,,,,,
ZnS,2.0362,eV,,,,,,,
RbBe$_{4}$(BO$_{3}$)$_{3}$,5.169,eV,,,,,,,
ZnS,2.0275,eV,,,,,,,
LaTiI$_{5}$O$_{16}$,2.8573,eV,,,,,,,
Pr(AgGe)$_{2}$,0.0,eV,,,,,,,
Cs$_{2}$K$_{2}$TeO$_{5}$,2.0248999999999997,eV,,,,,,,
CuAg$_{5}$As$_{3}$O$_{11}$,0.0,eV,,,,,,,
LaCN$_{2}$F,2.681,eV,,,,,,,
AsS$_{2}$NF$_{10}$,4.5233,eV,,,,,,,
Ba$_{3}$Bi$_{2}$TeO$_{9}$,2.1136000000000004,eV,,,,,,,
CaBi$_{2}$(CO$_{4}$)$_{2}$,1.4708999999999994,eV,,,,,,,
Na$_{4}$Cd$_{2}$Si$_{3}$O$_{10}$,2.7504999999999997,eV,,,,,,,
CsTmSeCl$_{2}$O$_{3}$,4.3558,eV,,,,,,,
Rb$_{2}$NiF$_{6}$,2.4215999999999998,eV,,,,,,,
AlSCl$_{3}$O$_{2}$,3.9643,eV,,,,,,,
ReO$_{2}$F$_{3}$,3.4217,eV,,,,,,,
Rb$_{2}$NaMn$_{3}$F$_{12}$,1.8271,eV,,,,,,,
NdVO$_{3}$,1.0340999999999996,eV,,,,,,,
NbCl$_{3}$O,2.8024,eV,,,,,,,
Na$_{2}$Si$_{2}$O$_{5}$,4.4498,eV,,,,,,,
RbVF$_{3}$,2.4491,eV,,,,,,,
SbF$_{4}$,3.4408000000000003,eV,,,,,,,
TeS$_{2}$(NCl)$_{2}$,1.9841,eV,,,,,,,
PH$_{10}$C$_{2}$NO$_{4}$,5.6895,eV,,,,,,,
Rb$_{5}$Tl$_{3}$O,0.0,eV,,,,,,,
AgBi(PS$_{3}$)$_{2}$,1.1797000000000004,eV,,,,,,,
Sb$_{2}$BrF$_{15}$,2.8579,eV,,,,,,,
Gd$_{10}$S$_{14}$O,1.3410000000000002,eV,,,,,,,
KNaSmNbO$_{5}$,3.4945,eV,,,,,,,
S$_{3}$(NO)$_{2}$,0.6067,eV,,,,,,,
CaZr$_{4}$(PO$_{4}$)$_{6}$,4.1838,eV,,,,,,,
Tc$_{2}$O$_{5}$F$_{4}$,1.8722,eV,,,,,,,
Ba$_{5}$Ru$_{2}$Cl$_{2}$O$_{9}$,0.0,eV,,,,,,,
ZnS,2.0191999999999997,eV,,,,,,,
PrB$_{2}$ClO$_{4}$,5.0695,eV,,,,,,,
H$_{14}$C$_{5}$(NO)$_{2}$,4.3708,eV,,,,,,,
SiO$_{2}$,5.5651,eV,,,,,,,
BaCa(CO$_{3}$)$_{2}$,4.126200000000001,eV,,,,,,,
KGe$_{2}$BO$_{6}$,3.498,eV,,,,,,,
SiO$_{2}$,4.035,eV,,,,,,,
Rb$_{4}$Nb$_{2}$S$_{10}$O,1.5715999999999999,eV,,,,,,,
ZnS,2.0328999999999997,eV,,,,,,,
SiO$_{2}$,5.696199999999999,eV,,,,,,,
LiYF$_{4}$,7.8149999999999995,eV,,,,,,,
KLaPdO$_{3}$,0.48660000000000014,eV,,,,,,,
Lu$_{2}$O$_{3}$,4.2763,eV,,,,,,,
SrH$_{2}$(CO$_{2}$)$_{2}$,4.6652,eV,,,,,,,
Ti$_{3}$O$_{5}$,0.0,eV,,,,,,,
SrU(SeO$_{4}$)$_{2}$,0.0013000000000000789,eV,,,,,,,
ZnS,0.06689999999999996,eV,,,,,,,
K$_{2}$NaMoF$_{6}$,3.8931,eV,,,,,,,
RbNiF$_{3}$,4.6929,eV,,,,,,,
Ta$_{2}$SnO$_{6}$,2.2893,eV,,,,,,,
MnP$_{4}$O$_{11}$,4.2716,eV,,,,,,,
Sr$_{10}$Al$_{4}$Si$_{6}$O,0.0,eV,,,,,,,
RbNi$_{2}$F$_{6}$,0.0,eV,,,,,,,
Sr$_{2}$Be$_{2}$B$_{2}$O$_{7}$,4.079700000000001,eV,,,,,,,
NClOF$_{4}$,1.6345,eV,,,,,,,
LiH$_{3}$CO$_{3}$,5.2442,eV,,,,,,,
Al$_{2}$(WO$_{4}$)$_{3}$,4.7523,eV,,,,,,,
MnCdF$_{5}$,0.7610000000000001,eV,,,,,,,
UTiNb$_{2}$O$_{10}$,1.9793999999999998,eV,,,,,,,
S$_{4}$N$_{3}$O$_{2}$F,2.1522,eV,,,,,,,
AsSOF$_{9}$,3.9252000000000002,eV,,,,,,,
Tl$_{2}$S,0.7668000000000004,eV,,,,,,,
K$_{2}$PbO$_{2}$,1.9201,eV,,,,,,,
K$_{2}$Pd(NO$_{3}$)$_{4}$,1.9068,eV,,,,,,,
CeB$_{2}$ClO$_{4}$,0.2019000000000002,eV,,,,,,,
CoF$_{2}$,3.0717,eV,,,,,,,
KNa$_{7}$Pb$_{2}$O$_{7}$,0.8484,eV,,,,,,,
K$_{3}$Cu$_{2}$(BiS$_{2}$)$_{5}$,0.5758000000000001,eV,,,,,,,
LaPb$_{6}$ClO$_{7}$,2.1393000000000004,eV,,,,,,,
Nb$_{2}$Sn$_{2}$O$_{7}$,0.8633000000000006,eV,,,,,,,
BaNd$_{2}$PtO$_{5}$,2.5164000000000004,eV,,,,,,,
Rb$_{4}$CO$_{4}$,1.6691999999999998,eV,,,,,,,
In$_{4}$GeS$_{4}$,1.0698000000000003,eV,,,,,,,
Cs$_{2}$MnBi$_{2}$S$_{5}$,1.0505999999999998,eV,,,,,,,
LaSc$_{3}$(BO$_{3}$)$_{4}$,3.9049,eV,,,,,,,
LiSi$_{2}$BO$_{6}$,5.5866999999999996,eV,,,,,,,
CaAlB$_{3}$O$_{7}$,5.380199999999999,eV,,,,,,,
Na$_{2}$Zr(CuS$_{2}$)$_{2}$,0.007100000000000328,eV,,,,,,,
SiO$_{2}$,4.5413,eV,,,,,,,
Na$_{8}$(CuO$_{2}$)$_{5}$,0.0,eV,,,,,,,
BaSb$_{2}$Xe$_{5}$F$_{22}$,2.5318,eV,,,,,,,
InSb$_{2}$S$_{4}$Cl,1.5135,eV,,,,,,,
ZnS,2.0196,eV,,,,,,,
LiAlSiO$_{4}$,5.021,eV,,,,,,,
K$_{2}$NiF$_{4}$,4.7252,eV,,,,,,,
Bi(BO$_{2}$)$_{3}$,3.9576,eV,,,,,,,
Bi$_{2}$O$_{3}$,2.2745,eV,,,,,,,
GdSeClO$_{3}$,2.993,eV,,,,,,,
K$_{4}$VP$_{2}$S$_{9}$,1.2863999999999998,eV,,,,,,,
SiO$_{2}$,5.1327,eV,,,,,,,
MnF$_{3}$,0.3873,eV,,,,,,,
LaFeO$_{3}$,1.2311999999999994,eV,,,,,,,
LiAsH$_{6}$(OF$_{2}$)$_{3}$,3.7843,eV,,,,,,,
SiO$_{2}$,0.30200000000000005,eV,,,,,,,
KBrF$_{4}$,0.8666,eV,,,,,,,
BaH$_{16}$C$_{4}$S$_{4}$(NO$_{5}$)$_{2}$,5.4192,eV,,,,,,,
SrTa$_{2}$Bi$_{2}$O$_{9}$,1.5824,eV,,,,,,,
Ag$_{4}$Se(IO$_{2}$)$_{2}$,0.7545000000000002,eV,,,,,,,
Ba$_{2}$Ca$_{3}$Tl$_{2}$(CuO$_{3}$)$_{4}$,0.0,eV,,,,,,,
Sr$_{2}$YGaCu$_{2}$O$_{7}$,0.0,eV,,,,,,,
ZnS,2.0639000000000003,eV,,,,,,,
Na$_{3}$Sb$_{3}$(AsO$_{7}$)$_{2}$,1.5102000000000002,eV,,,,,,,
Cd(IO$_{3}$)$_{2}$,3.2417,eV,,,,,,,
Cu(IO$_{3}$)$_{2}$,0.48930000000000007,eV,,,,,,,
CsSb$_{2}$F$_{7}$,4.2993,eV,,,,,,,
Pm$_{2}$O$_{3}$,3.7016,eV,,,,,,,
MnF$_{2}$,2.7674999999999996,eV,,,,,,,
AuSCl$_{7}$,1.8191,eV,,,,,,,
SiO$_{2}$,4.0078000000000005,eV,,,,,,,
GaH$_{20}$C$_{2}$S$_{2}$NO$_{14}$,4.7139999999999995,eV,,,,,,,
SiO$_{2}$,5.7675,eV,,,,,,,
TlBi(PS$_{3}$)$_{2}$,2.0311999999999997,eV,,,,,,,
Nd$_{4}$Cu$_{2}$O$_{7}$,1.6683,eV,,,,,,,
AlP$_{3}$(HO$_{2}$)$_{6}$,5.4786,eV,,,,,,,
In$_{3}$S$_{4}$,0.0,eV,,,,,,,
CsS$_{2}$N$_{3}$O$_{4}$,2.6646,eV,,,,,,,
BiBPbO$_{4}$,2.8760000000000003,eV,,,,,,,
Ba$_{3}$BiRu$_{2}$O$_{9}$,0.0,eV,,,,,,,
BaCuPClO$_{4}$,0.4492999999999998,eV,,,,,,,
ZrO$_{2}$,3.6906999999999996,eV,,,,,,,
KSb(PS$_{3}$)$_{2}$,2.2672999999999996,eV,,,,,,,
CaBi$_{6}$(PO$_{5}$)$_{4}$,3.5387999999999997,eV,,,,,,,
RbBiAs$_{6}$H$_{24}$C$_{8}$(S$_{6}$N)$_{2}$,1.8746,eV,,,,,,,
Tl$_{2}$OsCBr$_{2}$OF$_{3}$,0.7501,eV,,,,,,,
K$_{2}$TiOF$_{4}$,3.0221999999999998,eV,,,,,,,
K$_{4}$GeS$_{4}$,2.7133,eV,,,,,,,
RbAlAs$_{2}$O$_{7}$,3.0092,eV,,,,,,,
KZrSnF$_{7}$,4.0133,eV,,,,,,,
Na$_{3}$VF$_{6}$,2.5425,eV,,,,,,,
CuBi$_{2}$(SeO$_{3}$)$_{4}$,0.5945,eV,,,,,,,
Ba$_{6}$Na$_{2}$Nb$_{2}$P$_{2}$O$_{17}$,3.0126000000000004,eV,,,,,,,
DyNbO$_{4}$,3.4638,eV,,,,,,,
Na$_{2}$LiAlP$_{2}$H$_{2}$O$_{9}$,5.1375,eV,,,,,,,
Ba$_{7}$MnFe$_{6}$F$_{34}$,2.0787,eV,,,,,,,
RbNbAsClO$_{5}$,3.1146000000000003,eV,,,,,,,
RbFeF$_{4}$,2.8216,eV,,,,,,,
Ba$_{5}$Re$_{3}$ClO$_{15}$,2.5307,eV,,,,,,,
Li$_{4}$Ga$_{3}$Si$_{3}$BrO$_{12}$,3.9512,eV,,,,,,,
Cd$_{2}$BiAsO$_{6}$,2.0527999999999995,eV,,,,,,,
SiO$_{2}$,5.6055,eV,,,,,,,
Li$_{2}$AlBO$_{4}$,4.864,eV,,,,,,,
GdPH$_{5}$CO$_{7}$,3.1807,eV,,,,,,,
La$_{3}$TiCl$_{5}$O$_{4}$,3.4545000000000003,eV,,,,,,,
CO,5.8258,eV,,,,,,,
Y$_{2}$SiCO$_{7}$,4.7772,eV,,,,,,,
SiO$_{2}$,5.5589,eV,,,,,,,
CsCrF$_{4}$,2.6209,eV,,,,,,,
TlBiP$_{2}$S$_{7}$,2.2066,eV,,,,,,,
CaBiCO$_{4}$F,2.2216,eV,,,,,,,
LuU$_{4}$S$_{5}$O$_{4}$,0,eV,,,,,,,
Sn(SeO$_{3}$)$_{2}$,2.5822000000000003,eV,,,,,,,
Ba$_{3}$LuIr$_{2}$O$_{9}$,0.0,eV,,,,,,,
Tb$_{3}$Rb$_{2}$Li$_{14}$O$_{14}$,4.1199,eV,,,,,,,
Na$_{3}$Al$_{2}$(AsO$_{4}$)$_{3}$,3.258,eV,,,,,,,
Na$_{2}$Ca$_{3}$Si$_{3}$O$_{10}$,4.3798,eV,,,,,,,
CdSO$_{3}$,3.4225999999999996,eV,,,,,,,
KZrF$_{5}$,5.5642,eV,,,,,,,
CsU$_{6}$F$_{25}$,0.01100000000000012,eV,,,,,,,
NaSrBO$_{3}$,4.125,eV,,,,,,,
YbBa$_{2}$B$_{2}$ClO$_{6}$,0.0,eV,,,,,,,
CaTa$_{2}$Bi$_{2}$O$_{9}$,2.9175999999999997,eV,,,,,,,
Na$_{2}$PHO$_{3}$,5.579899999999999,eV,,,,,,,
EuBa$_{6}$(ClF$_{6}$)$_{2}$,0.0,eV,,,,,,,
Ba$_{3}$Mg(SiO$_{4}$)$_{2}$,4.6934000000000005,eV,,,,,,,
AsS(ClF$_{2}$)$_{3}$,3.7778,eV,,,,,,,
KUP$_{3}$O$_{11}$,2.2711,eV,,,,,,,
Na$_{2}$ZrSiO$_{5}$,4.0040000000000004,eV,,,,,,,
Ga$_{2}$BiS$_{4}$,2.5248,eV,,,,,,,
BaCu$_{6}$(GeS$_{4}$)$_{2}$,1.3080999999999996,eV,,,,,,,
LiTiMnF$_{6}$,0.09629999999999983,eV,,,,,,,
ZnS,2.0423999999999998,eV,,,,,,,
Tl$_{3}$Ga$_{9}$S$_{13}$O$_{2}$,2.2072,eV,,,,,,,
K$_{2}$Ti(SiO$_{3}$)$_{3}$,3.3701,eV,,,,,,,
Ba$_{5}$Re$_{3}$BrO$_{15}$,2.54,eV,,,,,,,
Ti$_{7}$O$_{13}$,0,eV,,,,,,,
CuH$_{8}$C$_{2}$Br$_{3}$NO,0.0,eV,,,,,,,
Re$_{2}$SCl$_{12}$,0.6964000000000001,eV,,,,,,,
TaP$_{2}$S$_{2}$Cl$_{5}$,2.3395,eV,,,,,,,
Ba$_{6}$Ti$_{17}$O$_{40}$,2.7082999999999995,eV,,,,,,,
ZnS,2.0262000000000002,eV,,,,,,,
Ba$_{2}$Ca$_{3}$Tl$_{2}$(CuO$_{3}$)$_{4}$,0,eV,,,,,,,
Rb$_{2}$Bi$_{4}$O$_{7}$,2.6064000000000003,eV,,,,,,,
Pr$_{6}$Ti$_{2}$S$_{7}$O$_{6}$,1.1657000000000002,eV,,,,,,,
BaZrF$_{6}$,6.3261,eV,,,,,,,
NaSiBO$_{4}$,5.5023,eV,,,,,,,
KNaThF$_{6}$,6.588800000000001,eV,,,,,,,
GaS,2.0122999999999998,eV,,,,,,,
TlInSiS$_{4}$,2.4359,eV,,,,,,,
TlCO$_{2}$,2.8733,eV,,,,,,,
Ag$_{3}$SNO$_{3}$,1.0637000000000003,eV,,,,,,,
CaCrF$_{5}$,2.8360000000000003,eV,,,,,,,
CoO$_{2}$,0,eV,,,,,,,
CsTcNClO$_{4}$,2.287,eV,,,,,,,
K$_{2}$Cu$_{3}$Ge$_{5}$O$_{14}$,0.48639999999999994,eV,,,,,,,
KSb$_{2}$PO$_{8}$,2.2122,eV,,,,,,,
K$_{2}$NaNiF$_{6}$,0.0,eV,,,,,,,
Nb$_{2}$P$_{4}$O$_{15}$,3.2682,eV,,,,,,,
Ba$_{5}$As$_{3}$ClO$_{12}$,3.9959999999999996,eV,,,,,,,
BS$_{2}$N$_{2}$OF$_{7}$,4.937,eV,,,,,,,
AsSe$_{3}$(NF$_{3}$)$_{2}$,1.2185,eV,,,,,,,
ClF$_{3}$,2.5828,eV,,,,,,,
Nd$_{2}$Si$_{2}$O$_{7}$,5.0399,eV,,,,,,,
K$_{2}$OsN$_{3}$Cl$_{3}$O$_{5}$,2.2837,eV,,,,,,,
ZnS,2.0399000000000003,eV,,,,,,,
Sr(PO$_{3}$)$_{2}$,5.4197999999999995,eV,,,,,,,
Li$_{2}$CO$_{3}$,3.7449000000000003,eV,,,,,,,
BaTeF$_{6}$,4.8353,eV,,,,,,,
Y$_{3}$CuGeS$_{7}$,1.7881,eV,,,,,,,
Gd$_{3}$CuSnS$_{7}$,1.0152999999999999,eV,,,,,,,
NaLiCO$_{3}$,4.502199999999999,eV,,,,,,,
ZnS,2.0208,eV,,,,,,,
RbTeF$_{5}$,4.8746,eV,,,,,,,
LiCdPO$_{4}$,3.2172,eV,,,,,,,
K$_{2}$Cu$_{3}$S$_{3}$O$_{13}$,0.19730000000000003,eV,,,,,,,
SiO$_{2}$,4.7884,eV,,,,,,,
K$_{5}$V$_{3}$O$_{10}$,3.0582000000000003,eV,,,,,,,
K$_{2}$Si$_{3}$SnO$_{9}$,3.8617,eV,,,,,,,
AgHg$_{2}$PO$_{4}$,1.1862999999999997,eV,,,,,,,
Li$_{3}$In(BO$_{3}$)$_{2}$,3.4307999999999996,eV,,,,,,,
Nd$_{3}$Co$_{11}$B$_{4}$,0.0,eV,,,,,,,
Na$_{3}$B$_{6}$PO$_{13}$,4.7576,eV,,,,,,,
PrAl$_{3}$(BO$_{3}$)$_{4}$,5.068600000000001,eV,,,,,,,
BaNa$_{2}$(SiO$_{3}$)$_{2}$,4.174300000000001,eV,,,,,,,
RbNb(BO$_{3}$)$_{2}$,3.3773,eV,,,,,,,
Sr$_{11}$(OsO$_{6}$)$_{4}$,0.0,eV,,,,,,,
CoPtF$_{6}$,1.8465,eV,,,,,,,
SiO$_{2}$,4.5145,eV,,,,,,,
Y$_{4}$Mo$_{4}$O$_{11}$,0.11209999999999987,eV,,,,,,,
LiNdGeO$_{4}$,4.058400000000001,eV,,,,,,,
ZnS,2.0408999999999997,eV,,,,,,,
Tl$_{2}$Cd$_{2}$(SO$_{4}$)$_{3}$,4.0297,eV,,,,,,,
Sm$_{3}$Si$_{2}$Cl$_{5}$O$_{6}$,4.6078,eV,,,,,,,
EuRb(SO$_{4}$)$_{2}$,0.0,eV,,,,,,,
Na$_{2}$CuP$_{2}$O$_{7}$,0.6496999999999999,eV,,,,,,,
Ca(BO$_{2}$)$_{2}$,5.456799999999999,eV,,,,,,,
AlSeS$_{2}$N$_{2}$Cl$_{5}$,2.2474,eV,,,,,,,
RuCl(OF$_{3}$)$_{2}$,0.5690999999999999,eV,,,,,,,
EuNa$_{2}$C(OF)$_{3}$,3.9875,eV,,,,,,,
AgAs(S$_{8}$F$_{3}$)$_{2}$,2.7366,eV,,,,,,,
CaBiCO$_{4}$F,1.4759999999999995,eV,,,,,,,
LaTmS$_{3}$,0.8731,eV,,,,,,,
CuH$_{12}$(N$_{5}$O$_{4}$)$_{2}$,0.7679,eV,,,,,,,
NdAsO$_{4}$,3.8819999999999997,eV,,,,,,,
CIClF$_{4}$,2.6833,eV,,,,,,,
CIF$_{3}$,3.6942,eV,,,,,,,
CaTa$_{2}$Bi$_{2}$O$_{9}$,0.16640000000000033,eV,,,,,,,
BaMnF$_{4}$,3.2598,eV,,,,,,,
Te$_{6}$Mo(OF$_{5}$)$_{6}$,2.7157999999999998,eV,,,,,,,
Ba$_{3}$Bi(ClO)$_{3}$,3.9283,eV,,,,,,,
BaCSNCl,4.1869000000000005,eV,,,,,,,
Al$_{2}$P$_{3}$H$_{9}$(CO$_{3}$)$_{3}$,4.7339,eV,,,,,,,
HgO,1.1926999999999999,eV,,,,,,,
Y$_{2}$Si$_{2}$O$_{7}$,4.6683,eV,,,,,,,
LiY(PO$_{3}$)$_{4}$,6.070600000000001,eV,,,,,,,
Ba$_{3}$AlF$_{9}$,6.5801,eV,,,,,,,
NaBe$_{2}$BO$_{3}$F$_{2}$,5.9419,eV,,,,,,,
Ag$_{2}$HgSI$_{2}$,1.2212000000000003,eV,,,,,,,
K$_{2}$PrZr(PO$_{4}$)$_{3}$,4.4301,eV,,,,,,,
SrCu$_{2}$Te$_{2}$(ClO$_{3}$)$_{2}$,0.0,eV,,,,,,,
Sb$_{5}$IO$_{7}$,2.5753,eV,,,,,,,
MgAl$_{2}$O$_{4}$,4.8621,eV,,,,,,,
RbCO$_{2}$,2.9410000000000003,eV,,,,,,,
La$_{6}$Mo$_{8}$O$_{33}$,3.2255000000000003,eV,,,,,,,
Ba$_{7}$Ru$_{4}$Br$_{2}$O$_{15}$,0,eV,,,,,,,
BiPPbO$_{5}$,3.3519000000000005,eV,,,,,,,
SiO$_{2}$,5.020300000000001,eV,,,,,,,
SiO$_{2}$,5.6423,eV,,,,,,,
MnB$_{2}$F$_{8}$,6.615500000000001,eV,,,,,,,
CaSi$_{2}$(NO)$_{2}$,4.3692,eV,,,,,,,
Li$_{4}$Al$_{3}$Ge$_{3}$ClO$_{12}$,4.2892,eV,,,,,,,
KSbF$_{6}$,4.912599999999999,eV,,,,,,,
BaNaCr$_{2}$F$_{9}$,3.5693,eV,,,,,,,
KFeF$_{3}$,0.0,eV,,,,,,,
InBiO$_{3}$,2.733200000000001,eV,,,,,,,
Rb$_{2}$SbAuS$_{4}$,1.5357999999999998,eV,,,,,,,
Ba$_{4}$AgAuO$_{6}$,1.8533,eV,,,,,,,
Mn$_{2}$Hg$_{2}$SF$_{6}$,0.0,eV,,,,,,,
KLi$_{4}$NbO$_{5}$,3.7769999999999997,eV,,,,,,,
HgSb$_{4}$C$_{2}$(OF$_{11}$)$_{2}$,4.298,eV,,,,,,,
KSbN(OF)$_{3}$,3.2613000000000003,eV,,,,,,,
GdMg(BO$_{2}$)$_{5}$,3.0152,eV,,,,,,,
Na$_{3}$LiBe$_{2}$F$_{8}$,6.9864,eV,,,,,,,
Nd$_{5}$As$_{4}$(ClO$_{4}$)$_{3}$,3.6757,eV,,,,,,,
Sm$_{3}$SiS$_{6}$Cl,2.5571999999999995,eV,,,,,,,
FeF$_{2}$,3.2415,eV,,,,,,,
GaAgS$_{2}$,1.0178000000000003,eV,,,,,,,
NbPO$_{5}$,2.2571,eV,,,,,,,
Tb$_{9}$(SbO)$_{5}$,0.0,eV,,,,,,,
CuAs$_{2}$S$_{4}$(O$_{2}$F$_{3}$)$_{4}$,0.7370999999999999,eV,,,,,,,
RbFeF$_{4}$,2.8280000000000003,eV,,,,,,,
TlPO$_{3}$,3.6020000000000003,eV,,,,,,,
KNaSiF$_{6}$,6.980499999999999,eV,,,,,,,
CsBa(BO$_{2}$)$_{3}$,4.0415,eV,,,,,,,
Pr$_{30}$Ti$_{24}$Se$_{58}$I$_{8}$O$_{25}$,0.004000000000000448,eV,,,,,,,
NpIO,0.0,eV,,,,,,,
MgSiO$_{3}$,3.8758,eV,,,,,,,
NaFeF$_{3}$,3.0099,eV,,,,,,,
Ca$_{2}$SiO$_{4}$,4.4522,eV,,,,,,,
ZnS,2.0322999999999998,eV,,,,,,,
CuH$_{3}$C$_{2}$NO$_{4}$,0.2782,eV,,,,,,,