formula,Property Band Gap,Property Band Gap units,Property Band gap,Property Band gap units,Temperature (Property Band gap),Temperature (Property Band gap) units,Property Color,Temperature (Property Color),Temperature (Property Color) units
Cr$_{2}$CoS$_{4}$,0.0,eV,,,,,,,
CaPd,0.0,eV,,,,,,,
LuNi$_{2}$,0.0,eV,,,,,,,
Yb$_{5}$Ge$_{4}$,0.0,eV,,,,,,,
ScInNi$_{2}$,0.0,eV,,,,,,,
GdNi$_{5}$,0.038399999999999324,eV,,,,,,,
TiCoSi,0.0,eV,,,,,,,
EuNaTiO$_{4}$,0.0,eV,,,,,,,
TbInPd,0.0,eV,,,,,,,
MgTe(PbO$_{3}$)$_{2}$,2.2615999999999996,eV,,,,,,,
SrN$_{6}$,3.2903000000000002,eV,,,,,,,
TbGeRu,0.0,eV,,,,,,,
Ca(Ni$_{2}$B)$_{6}$,0.02340000000000053,eV,,,,,,,
PuNi$_{5}$,0.024499999999999744,eV,,,,,,,
TaSiIr,0.0,eV,,,,,,,
PtPb$_{2}$,0.0,eV,,,,,,,
Ce$_{3}$TlC,0.0,eV,,,,,,,
UGaNi,0.0,eV,,,,,,,
MnSe$_{2}$,0.0,eV,,,,,,,
DyGeIr,0.0,eV,,,,,,,
KO$_{2}$,0.1116,eV,,,,,,,
Rb$_{3}$Ir(NO$_{2}$)$_{6}$,0.0,eV,,,,,,,
HfSn,0.0,eV,,,,,,,
ZnO,0.7317,eV,,,,,,,
EuAgAs,0.0,eV,,,,,,,
LiGdO$_{2}$,3.2803999999999998,eV,,,,,,,
UTe$_{2}$,0.0,eV,,,,,,,
TaFeP,0.0,eV,,,,,,,
U$_{2}$SnPd$_{2}$,0.0,eV,,,,,,,
U(Mo$_{3}$S$_{4}$)$_{2}$,0.0,eV,,,,,,,
CeCoGe,0.0013999999999994017,eV,,,,,,,
ErAl$_{3}$,0.0,eV,,,,,,,
HfGePt,0.0,eV,,,,,,,
V$_{3}$Sn,0.0,eV,,,,,,,
CeB$_{6}$,0.0,eV,,,,,,,
CuGeO$_{3}$,0.0,eV,,,,,,,
LaGe,0.0,eV,,,,,,,
U$_{3}$Si$_{2}$,0.0,eV,,,,,,,
CoBMo,0.0,eV,,,,,,,
EuBa$_{2}$TaO$_{6}$,0.0,eV,,,,,,,
PuGa$_{3}$,0.0,eV,,,,,,,
Pr$_{2}$MgGe$_{2}$,0.0,eV,,,,,,,
Dy$_{2}$In,0.0,eV,,,,,,,
NaIn$_{2}$Au,0.0,eV,,,,,,,
EuCuSF,0.3233000000000006,eV,,,,,,,
EuCuSeF,0.0,eV,,,,,,,
U$_{2}$Fe$_{2}$Sn,0.0,eV,,,,,,,
Ce(SnIr)$_{2}$,0.0,eV,,,,,,,
SbRh$_{2}$,0.0,eV,,,,,,,
Sb$_{2}$O$_{3}$,2.2239000000000004,eV,,,,,,,
NdInCu$_{2}$,0.0,eV,,,,,,,
TbFeSi,0.0,eV,,,,,,,
HoCuAs$_{2}$,0.0,eV,,,,,,,
InSbS$_{3}$,1.4760999999999997,eV,,,,,,,
Yb(GeRu)$_{2}$,0.0,eV,,,,,,,
LaIn$_{2}$Pd,0.0,eV,,,,,,,
Mg$_{2}$Ni,0.0,eV,,,,,,,
EuBa$_{2}$SbO$_{6}$,0.0021999999999997577,eV,,,,,,,
VCoSi,0.0,eV,,,,,,,
CePRuO,0.0,eV,,,,,,,
EuCuP,0.01949999999999985,eV,,,,,,,
Cd(InTe$_{2}$)$_{2}$,0.8481000000000005,eV,,,,,,,
CeMgGa,0.0,eV,,,,,,,
Sm,0.0,eV,,,,,,,
HoMnGe,0.019999999999999574,eV,,,,,,,
SmInIr,0.0,eV,,,,,,,
PtPb,0.0,eV,,,,,,,
ThPb$_{3}$,0.0,eV,,,,,,,
Dy$_{2}$AlGe$_{2}$,0.0,eV,,,,,,,
Eu(SiRh)$_{2}$,0.0,eV,,,,,,,
In$_{3}$Ni$_{2}$,0.0,eV,,,,,,,
Eu(PIr)$_{2}$,0.2748999999999997,eV,,,,,,,
CeInPd,0.0,eV,,,,,,,
U(CuGe)$_{2}$,0.0,eV,,,,,,,
Eu$_{3}$AuO$_{6}$,0.0,eV,,,,,,,
BaGe$_{2}$,0.5255000000000001,eV,,,,,,,
La$_{2}$InCuSe$_{5}$,0.5091000000000001,eV,,,,,,,
Tb$_{3}$InC,0.0,eV,,,,,,,
Ce$_{3}$Al,0.0,eV,,,,,,,
EuO,0.0,eV,,,,,,,
HoIn$_{5}$Co,0.0,eV,,,,,,,
CeMnGe,0.0,eV,,,,,,,
ZrRu,0.0,eV,,,,,,,
Ga$_{3}$Pt$_{2}$,0.0,eV,,,,,,,
TbSnPd,0.0,eV,,,,,,,
PrCr$_{2}$Si$_{2}$C,0.0,eV,,,,,,,
InSe,1.0795999999999997,eV,,,,,,,
Eu$_{3}$TaO$_{6}$,1.9471999999999996,eV,,,,,,,
EuAl$_{9}$Co$_{2}$,0.04239999999999977,eV,,,,,,,
Gd(SiOs)$_{2}$,0.0026999999999999247,eV,,,,,,,
Zn(InS$_{2}$)$_{2}$,0.19399999999999995,eV,,,,,,,
Ce$_{3}$Tl,0.0,eV,,,,,,,
RbMnP,0.020399999999999974,eV,,,,,,,
LaIn$_{5}$Co,0.0,eV,,,,,,,
Dy(NiGe)$_{2}$,0.0,eV,,,,,,,
PuAl$_{2}$,0.0,eV,,,,,,,
Eu(GeRu)$_{2}$,0.0,eV,,,,,,,
MnSnPt,0.0,eV,,,,,,,
CeMg$_{2}$,0.0,eV,,,,,,,
Te$_{2}$Os,0.0,eV,,,,,,,
Nd(MnGe)$_{2}$,0.0,eV,,,,,,,
Pu$_{2}$SO$_{2}$,0.0,eV,,,,,,,
YCoC,0.0,eV,,,,,,,
Pu$_{2}$O$_{3}$,0.0,eV,,,,,,,
TbNiGe,0.0,eV,,,,,,,
UNiSn,0.013399999999998968,eV,,,,,,,
Dy(FeGe)$_{2}$,0.0,eV,,,,,,,
GdPd$_{3}$,0.07460000000000022,eV,,,,,,,
Th$_{2}$In,0.0,eV,,,,,,,
U(CoSi)$_{2}$,0.0,eV,,,,,,,
USe,0.0,eV,,,,,,,
YbPb$_{3}$,0.0,eV,,,,,,,
HoIn$_{3}$,0.0,eV,,,,,,,
LaPb$_{3}$,0.0,eV,,,,,,,
GdCuSn,0.0,eV,,,,,,,
LaInAu,0.0,eV,,,,,,,
YbMnSi,0.0,eV,,,,,,,
NbCrGe,0.0,eV,,,,,,,
CeSiIr,0.0,eV,,,,,,,
Ce$_{2}$Pd$_{2}$Pb,0.0,eV,,,,,,,
Ba$_{3}$In$_{2}$O$_{5}$F$_{2}$,1.5869000000000004,eV,,,,,,,
BaPb$_{3}$,0.0,eV,,,,,,,
Nb$_{4}$CoP,0.0,eV,,,,,,,
NbCoP,0.0,eV,,,,,,,
ErSi$_{2}$,0.0,eV,,,,,,,
Nd$_{2}$InPd$_{2}$,0.0,eV,,,,,,,
Ba$_{2}$SmCu$_{3}$O$_{7}$,0.0,eV,,,,,,,
Pb$_{3}$O$_{4}$,1.1583,eV,,,,,,,
EuAlO$_{3}$,0.0,eV,,,,,,,
SmMgIn,0.0,eV,,,,,,,
Ti$_{3}$Cu$_{3}$O,0.0,eV,,,,,,,
GdCdCu,0.006800000000000139,eV,,,,,,,
InAgS$_{2}$,0.5082,eV,,,,,,,
KGe,0.9106,eV,,,,,,,
CeIn$_{2}$Pd,0.0,eV,,,,,,,
Rb$_{2}$PbO$_{3}$,1.236,eV,,,,,,,
PrTiGe,0.0,eV,,,,,,,
CoReB,0.0,eV,,,,,,,
Ca$_{2}$RuO$_{4}$,0.0,eV,,,,,,,
TiCo$_{2}$Sn,0.0,eV,,,,,,,
PuIn,0.0,eV,,,,,,,
VCo$_{2}$Sn,0.0,eV,,,,,,,
SrGe,0.0,eV,,,,,,,
Gd(NiP)$_{2}$,0.017800000000001148,eV,,,,,,,
Eu(MnP)$_{2}$,0.0,eV,,,,,,,
SmInCu$_{2}$,0.0,eV,,,,,,,
Fe$_{2}$N,0.0,eV,,,,,,,
RbIn$_{4}$,0.0,eV,,,,,,,
U(CuP)$_{2}$,0.0,eV,,,,,,,
LaIn$_{5}$Rh,0.0,eV,,,,,,,
Pr$_{3}$Pb,0.0,eV,,,,,,,
NpIn$_{3}$,0.0,eV,,,,,,,
Nd$_{3}$In,0.0,eV,,,,,,,
PuGe$_{3}$,0.0,eV,,,,,,,
Tm$_{2}$In,0.0,eV,,,,,,,
EuIn$_{2}$Rh,6.00000000000378E-4,eV,,,,,,,
Rb$_{2}$PbO$_{3}$,1.2033,eV,,,,,,,
NpIr$_{2}$,0.0,eV,,,,,,,
Y$_{3}$GaCo$_{3}$,0.0,eV,,,,,,,
CeInNi,0.0022999999999999687,eV,,,,,,,
U$_{2}$Ga$_{8}$Ru,0.0,eV,,,,,,,
UCoSn,0.0,eV,,,,,,,
CrFeP,0.0,eV,,,,,,,
LiLa$_{4}$CuO$_{8}$,0.7702,eV,,,,,,,
Pb$_{2}$SO$_{5}$,3.1338,eV,,,,,,,
FeNi$_{2}$(CN)$_{6}$,0.1678,eV,,,,,,,
YbInPd,0.0,eV,,,,,,,
YSb,0.0,eV,,,,,,,
BaTe$_{2}$,0.34250000000000025,eV,,,,,,,
Yb$_{2}$InCu$_{2}$,0.0,eV,,,,,,,
BRh$_{2}$,0.0,eV,,,,,,,
YMgIn,0.0,eV,,,,,,,
V$_{4}$GaSe$_{8}$,0.0,eV,,,,,,,
YAgPb,0.0,eV,,,,,,,
Y$_{2}$Pd$_{2}$Pb,0.0,eV,,,,,,,
LaMgGa,0.0,eV,,,,,,,
Mg$_{17}$Al$_{12}$,0.0,eV,,,,,,,
K$_{2}$NaInAs$_{2}$,0.6218999999999997,eV,,,,,,,
K$_{2}$NaInP$_{2}$,1.0504000000000002,eV,,,,,,,
Fe$_{3}$S$_{4}$,0.0034999999999998366,eV,,,,,,,
CeMgTl,0.0,eV,,,,,,,
YNi$_{5}$,0.0,eV,,,,,,,
NaCeP$_{2}$O$_{7}$,0.0,eV,,,,,,,
Cs$_{2}$PbO$_{3}$,1.3911,eV,,,,,,,
La(In$_{2}$Au)$_{2}$,0.0,eV,,,,,,,
SrNiN,0.0,eV,,,,,,,
RbPb,0.40500000000000025,eV,,,,,,,
KPb,0.37349999999999994,eV,,,,,,,
Na$_{2}$ScCuF$_{7}$,0.0,eV,,,,,,,
La$_{3}$(GaNi)$_{2}$,0.010799999999999699,eV,,,,,,,
U$_{2}$Mn$_{3}$Si$_{5}$,0.0,eV,,,,,,,
La$_{2}$Ge$_{2}$O$_{7}$,3.5542000000000002,eV,,,,,,,
CuP$_{2}$PbO$_{7}$,0.6361000000000003,eV,,,,,,,
Ni$_{2}$Mo$_{4}$C,0.0,eV,,,,,,,
Ce(In$_{2}$Au)$_{2}$,0.0,eV,,,,,,,
Ba$_{5}$Ge$_{3}$,0.0,eV,,,,,,,
CeP,0.0,eV,,,,,,,
Li$_{3}$TiF$_{6}$,0.1575000000000002,eV,,,,,,,
K$_{2}$CeTa$_{5}$O$_{15}$,0.0481000000000007,eV,,,,,,,
K$_{2}$CeNb$_{5}$O$_{15}$,0.0,eV,,,,,,,
Na$_{3}$InSb$_{2}$,0.28480000000000016,eV,,,,,,,
Er(SiNi$_{5}$)$_{2}$,0.0,eV,,,,,,,
In$_{2}$(Ni$_{7}$B$_{2}$)$_{3}$,0.024699999999999278,eV,,,,,,,
Na$_{2}$GaCuF$_{7}$,0.0,eV,,,,,,,
P$_{3}$Pb$_{5}$O$_{12}$F,3.72,eV,,,,,,,
Ce$_{3}$(InRu)$_{2}$,0.0,eV,,,,,,,
K$_{3}$Ce(PS$_{4}$)$_{2}$,0.1660999999999997,eV,,,,,,,
Zr$_{2}$Te,0.0,eV,,,,,,,
CuAs$_{2}$PbO$_{7}$,0.45210000000000017,eV,,,,,,,
Sm$_{3}$InSe$_{6}$,0.7092999999999998,eV,,,,,,,
SrAlBO$_{4}$,4.297899999999999,eV,,,,,,,
Tb(FeGe)$_{6}$,0.0,eV,,,,,,,
SmAl$_{3}$(PbO$_{4}$)$_{2}$,2.9907,eV,,,,,,,
BaSm$_{2}$CuO$_{5}$,0.0,eV,,,,,,,
HfReSi$_{2}$,0.0,eV,,,,,,,
La$_{4}$In$_{5}$S$_{13}$,0.0,eV,,,,,,,
Ni$_{21}$(SnB$_{3}$)$_{2}$,0.026499999999998636,eV,,,,,,,
Pr$_{3}$InSe$_{6}$,0.6879000000000004,eV,,,,,,,
Sc$_{2}$Te,0.0,eV,,,,,,,
Na$_{3}$InP$_{2}$,0.6425999999999998,eV,,,,,,,
KCu$_{4}$(AsO$_{4}$)$_{3}$,0.19380000000000042,eV,,,,,,,
EuSnF$_{7}$,0.010199999999999987,eV,,,,,,,
Tb(FeSn)$_{6}$,0.0,eV,,,,,,,
Nd$_{4}$In$_{5}$S$_{13}$,0.0,eV,,,,,,,
Sc(US$_{2}$)$_{3}$,0.0,eV,,,,,,,
Ta$_{11}$(CoSe$_{4}$)$_{2}$,0.0,eV,,,,,,,
Mg$_{6}$Ni$_{16}$As$_{7}$,0.0,eV,,,,,,,
Sc$_{2}$Fe$_{3}$Si$_{5}$,0.0,eV,,,,,,,
Ga$_{9}$Ni$_{13}$,0.0,eV,,,,,,,
DyTe,0.0,eV,,,,,,,
ZrCrSi$_{2}$,0.0,eV,,,,,,,
EuNb$_{8}$O$_{14}$,0.013200000000000323,eV,,,,,,,
Ca$_{9}$Zn$_{4}$Sb$_{9}$,0.0,eV,,,,,,,
Ba$_{3}$Ge$_{4}$,0.0,eV,,,,,,,
Ce$_{3}$(GeRh)$_{2}$,0.0,eV,,,,,,,
SiNi$_{2}$As,0.0,eV,,,,,,,
Eu$_{2}$Si$_{2}$O$_{7}$,0.0,eV,,,,,,,
Sc$_{2}$O$_{3}$,3.8235,eV,,,,,,,
Sb$_{2}$Se$_{3}$,0.7564000000000002,eV,,,,,,,
Tb(SiNi$_{5}$)$_{2}$,0.0,eV,,,,,,,
Sm$_{3}$InS$_{6}$,0.9908999999999999,eV,,,,,,,
TiMnSi$_{2}$,0.0,eV,,,,,,,
Tm$_{2}$(Ni$_{7}$B$_{2}$)$_{3}$,0.04679999999999929,eV,,,,,,,
SrCuN,0.26449999999999996,eV,,,,,,,
Na$_{2}$InCuF$_{7}$,0.0,eV,,,,,,,
Mg$_{6}$Si$_{7}$Cu$_{16}$,0.0,eV,,,,,,,
K$_{5}$Pb$_{24}$,0.0,eV,,,,,,,
In$_{2}$Cu$_{2}$O$_{5}$,0.10269999999999957,eV,,,,,,,
NdAl$_{3}$(PbO$_{4}$)$_{2}$,2.9856999999999996,eV,,,,,,,
Er$_{6}$Fe$_{23}$,0.0036000000000004917,eV,,,,,,,
U$_{2}$Si$_{5}$Tc$_{3}$,0.0,eV,,,,,,,
Y$_{6}$Te$_{2}$Rh,0.007899999999999352,eV,,,,,,,
Na$_{3}$InAs$_{2}$,0.1482000000000001,eV,,,,,,,
ThFe$_{5}$P$_{3}$,0.0,eV,,,,,,,
Y$_{2}$(Ga$_{3}$Co)$_{3}$,0.0,eV,,,,,,,
Mn$_{6}$Ni$_{16}$As$_{7}$,0.0,eV,,,,,,,
HoRh,0.0,eV,,,,,,,
KTiF$_{4}$,0.0,eV,,,,,,,
Mo$_{3}$S$_{4}$,0.0,eV,,,,,,,
Mn$_{3}$(Ni$_{10}$P$_{3}$)$_{2}$,0.0,eV,,,,,,,
UMn$_{5}$P$_{3}$,0.0,eV,,,,,,,
BaNb$_{8}$O$_{14}$,0.20310000000000006,eV,,,,,,,
CeGePd,0.0016999999999995907,eV,,,,,,,
SmZn,0.0,eV,,,,,,,
Ce$_{5}$Ge$_{2}$Ru,0.0,eV,,,,,,,
Sr$_{8}$CaRe$_{3}$(CuO$_{6}$)$_{4}$,0.0,eV,,,,,,,
BaNiN,0.0,eV,,,,,,,
Ta$_{11}$(FeSe$_{4}$)$_{2}$,0.0,eV,,,,,,,
Tl$_{5}$Se$_{3}$,0.0,eV,,,,,,,
Sm$_{5}$Ga$_{3}$,0.0,eV,,,,,,,
Hf$_{3}$(NbGe$_{2}$)$_{2}$,0.0,eV,,,,,,,
HfGa$_{2}$Co,0.0,eV,,,,,,,
YSi$_{3}$Ni$_{5}$,0.0,eV,,,,,,,
TiFeSi$_{2}$,0.010799999999999699,eV,,,,,,,
Nb$_{3}$(Fe$_{10}$B$_{3}$)$_{2}$,0.0,eV,,,,,,,
CeZn(BO$_{2}$)$_{5}$,0.13739999999999952,eV,,,,,,,
DyAg,0.0,eV,,,,,,,
ThInCu$_{5}$,0.0,eV,,,,,,,
Eu(Ni$_{5}$P$_{3}$)$_{2}$,0.008999999999998565,eV,,,,,,,
Pu$_{5}$Ir$_{4}$,0.0,eV,,,,,,,
Ca$_{3}$(InNi$_{2}$)$_{4}$,0.0,eV,,,,,,,
SnSe,0.26890000000000036,eV,,,,,,,
Nb$_{5}$Ge$_{4}$,0.0,eV,,,,,,,
In$_{2}$(Ni$_{7}$P$_{2}$)$_{3}$,0.0,eV,,,,,,,
Ce$_{5}$Cu$_{19}$P$_{12}$,0.0,eV,,,,,,,
Ba$_{4}$UCr$_{2}$S$_{9}$,0.0,eV,,,,,,,
Fe$_{7}$S$_{8}$,0.022800000000000153,eV,,,,,,,
CeGe$_{3}$Pd$_{5}$,0.0,eV,,,,,,,
La$_{5}$Pb$_{4}$,0.02200000000000024,eV,,,,,,,
Ce$_{5}$Sn$_{4}$,8.999999999996788E-4,eV,,,,,,,
Ce(Ni$_{2}$B)$_{6}$,0.0,eV,,,,,,,
BaLa$_{2}$In$_{2}$O$_{7}$,2.4620000000000006,eV,,,,,,,
Li$_{2}$Pt,0.0,eV,,,,,,,
UFe$_{5}$Sn,0.0,eV,,,,,,,
Na$_{3}$TiP$_{3}$NO$_{9}$,0.0,eV,,,,,,,
K$_{2}$In$_{3}$AgSe$_{6}$,1.0658,eV,,,,,,,
GdAl$_{3}$(PbO$_{4}$)$_{2}$,2.9479,eV,,,,,,,
Er$_{2}$CrS$_{4}$,0.0,eV,,,,,,,
CeCu$_{6}$,0.007699999999999818,eV,,,,,,,
CaGeAu,0.0,eV,,,,,,,
Tb$_{2}$Ti$_{3}$Ge$_{4}$,0.0,eV,,,,,,,
K$_{2}$In$_{3}$CuSe$_{6}$,0.7267000000000001,eV,,,,,,,
Sr$_{2}$In$_{4}$Pt$_{3}$,0.0,eV,,,,,,,
Sc$_{2}$V$_{3}$Ge$_{4}$,0.0,eV,,,,,,,
AlAs,1.5017,eV,,,,,,,
SiPbO$_{3}$,3.2632000000000003,eV,,,,,,,
ZnSiPbO$_{4}$,3.1014000000000004,eV,,,,,,,
Mg$_{6}$Ni$_{16}$Ge$_{7}$,0.0129999999999999,eV,,,,,,,
CuGe$_{5}$Pb$_{3}$O$_{14}$,0.6941999999999999,eV,,,,,,,
P$_{2}$O$_{5}$,4.8374,eV,,,,,,,
Cu$_{4}$P$_{2}$O$_{9}$,0.05810000000000004,eV,,,,,,,
Sr(InSe$_{2}$)$_{2}$,1.7062,eV,,,,,,,
ScCoGe$_{2}$,0.0,eV,,,,,,,
K$_{2}$In$_{2}$As$_{3}$,0.7807999999999997,eV,,,,,,,
Ba$_{5}$AlIr$_{2}$O$_{11}$,0.0,eV,,,,,,,
TbSi$_{3}$Rh$_{5}$,0.0,eV,,,,,,,
TlF,2.2093,eV,,,,,,,
Lu$_{3}$Ge$_{13}$Rh$_{4}$,0.06299999999999972,eV,,,,,,,
Nb$_{3}$InSe$_{12}$,0.0,eV,,,,,,,
Sr(In$_{4}$Rh)$_{2}$,0.0,eV,,,,,,,
Eu$_{3}$Al$_{5}$O$_{12}$,0.0,eV,,,,,,,
ZnTe,1.0787,eV,,,,,,,
Rb$_{2}$In$_{2}$Sb$_{3}$,0.7399999999999998,eV,,,,,,,
Nd(Cu$_{2}$P)$_{2}$,0.11079999999999934,eV,,,,,,,
Pd$_{17}$Se$_{15}$,0.0,eV,,,,,,,
Ba(InSe$_{2}$)$_{2}$,1.687,eV,,,,,,,
Si$_{2}$Pb$_{3}$O$_{7}$,2.6294,eV,,,,,,,
Cu$_{4}$As$_{2}$O$_{9}$,0.0,eV,,,,,,,
Ca$_{2}$Sn$_{5}$Pt$_{3}$,0.0,eV,,,,,,,
CaCuGe,0.0,eV,,,,,,,
SmSi$_{3}$Rh$_{5}$,0.0,eV,,,,,,,
Sr(InS$_{2}$)$_{2}$,2.2643000000000004,eV,,,,,,,
Eu$_{4}$Au$_{2}$O$_{9}$,0.0013999999999998458,eV,,,,,,,
TiRe,0.0,eV,,,,,,,
HoSi$_{3}$Rh$_{5}$,0.0,eV,,,,,,,
Sm$_{2}$Si$_{2}$O$_{7}$,4.7966,eV,,,,,,,
Yb(Ga$_{4}$Co)$_{2}$,0.0,eV,,,,,,,
Ta$_{5}$P$_{3}$,0.0,eV,,,,,,,
Sm$_{2}$O$_{3}$,3.7823,eV,,,,,,,
Rb$_{4}$PbO$_{3}$,2.1723,eV,,,,,,,
YNi$_{5}$Ge$_{3}$,0.01529999999999987,eV,,,,,,,
Tm$_{5}$(Ge$_{5}$Rh$_{2}$)$_{2}$,0.0,eV,,,,,,,
U$_{2}$Nb$_{3}$Ge$_{4}$,0.0,eV,,,,,,,
Ho$_{5}$(Ge$_{5}$Rh$_{2}$)$_{2}$,0.0,eV,,,,,,,
U$_{2}$Cr$_{30}$P$_{19}$,0.0,eV,,,,,,,
SnAs,0.0,eV,,,,,,,
Yb$_{2}$Sn$_{5}$Pt$_{3}$,0.0,eV,,,,,,,
UNi$_{5}$Ge$_{3}$,0.0,eV,,,,,,,
In$_{9}$(CuSe$_{4}$)$_{4}$,0.0,eV,,,,,,,
Mo$_{4}$P$_{3}$,0.016000000000000014,eV,,,,,,,
Nd$_{6}$Fe$_{13}$Sn,0.0,eV,,,,,,,
Cs$_{2}$In$_{2}$Sb$_{3}$,0.7882999999999996,eV,,,,,,,
K$_{2}$In$_{12}$Se$_{19}$,0.8491,eV,,,,,,,
Ce(SeO$_{4}$)$_{2}$,1.2847,eV,,,,,,,
Ba$_{4}$Ge$_{20}$Au$_{3}$,0.0,eV,,,,,,,
As$_{2}$O$_{3}$,4.009,eV,,,,,,,
UTl$_{3}$,0.0,eV,,,,,,,
FePd$_{3}$,0.0,eV,,,,,,,
KMnAs,0.0,eV,,,,,,,
F$_{2}$,0.0,eV,,,,,,,
Eu(SiIr)$_{2}$,0.0,eV,,,,,,,
Fe$_{3}$SnC,0.0,eV,,,,,,,
MnSiIr,0.0,eV,,,,,,,
Nb$_{3}$PbS$_{6}$,0.0,eV,,,,,,,
SmIn$_{2}$Ir,0.0,eV,,,,,,,
Nd$_{3}$TlC,0.0,eV,,,,,,,
VCu$_{3}$Se$_{4}$,0.8164000000000002,eV,,,,,,,
UO$_{3}$,1.9038,eV,,,,,,,
CuAs$_{2}$,0.0,eV,,,,,,,
Cu$_{3}$TeO$_{6}$,0.0,eV,,,,,,,
VRu$_{3}$C,0.0129999999999999,eV,,,,,,,
Pd$_{3}$(PbS)$_{2}$,0.19099999999999984,eV,,,,,,,
FeCu$_{2}$Sn,0.0,eV,,,,,,,
Dy$_{2}$InAu$_{2}$,0.0,eV,,,,,,,
Ba$_{2}$Lu(CuO$_{2}$)$_{3}$,0.11359999999999992,eV,,,,,,,
Gd(Sn$_{3}$Ru$_{2}$)$_{2}$,0.017199999999999882,eV,,,,,,,
TiSb,0.0,eV,,,,,,,
Pr$_{2}$InPd$_{2}$,0.0,eV,,,,,,,
CeCrS$_{3}$,0.0,eV,,,,,,,
PrLuO$_{3}$,4.8751999999999995,eV,,,,,,,
Y$_{4}$GaCo$_{4}$,9.999999999994458E-4,eV,,,,,,,
CeCo$_{4}$B,0.0,eV,,,,,,,
Ba$_{2}$CePtO$_{6}$,1.4203999999999999,eV,,,,,,,
Ce(FeGe)$_{2}$,0.0,eV,,,,,,,
VGaFe$_{2}$,0.0,eV,,,,,,,
EuGa$_{4}$,0.0,eV,,,,,,,
Ca$_{2}$InPt$_{2}$,0.0,eV,,,,,,,
NdInPd,0.0,eV,,,,,,,
Tm$_{3}$SnC,0.11080000000000023,eV,,,,,,,
Th(GePt)$_{2}$,0.004100000000000215,eV,,,,,,,
CrSe,0.0,eV,,,,,,,
NdCoSi,0.0,eV,,,,,,,
PrSi$_{2}$Mo$_{2}$C,0.0,eV,,,,,,,
Al$_{2}$PbO$_{4}$,3.9425,eV,,,,,,,
MnTe$_{2}$,0.0,eV,,,,,,,
LiSn$_{4}$Ir,0.0,eV,,,,,,,
Na$_{15}$Pb$_{4}$,0.0,eV,,,,,,,
YbIn$_{4}$Pt,0.0,eV,,,,,,,
TbSrO$_{3}$,0.0,eV,,,,,,,
UZnNi$_{4}$,0.00420000000000087,eV,,,,,,,
Ce(SiIr)$_{2}$,0.0,eV,,,,,,,
SrIn$_{4}$Ir,0.0,eV,,,,,,,
Th$_{2}$FeB$_{10}$,0.0,eV,,,,,,,
EuKGeS$_{4}$,0.006799999999999917,eV,,,,,,,
PbS$_{2}$O$_{3}$,3.5394,eV,,,,,,,
U$_{20}$Si$_{16}$C$_{3}$,0.0,eV,,,,,,,
NbSiAs,0.0,eV,,,,,,,
Nd$_{3}$AlN,0.0,eV,,,,,,,
PRu$_{2}$,0.0,eV,,,,,,,
Ce$_{3}$Co$_{4}$Sn$_{13}$,0.0,eV,,,,,,,
Sm(Ni$_{2}$P)$_{2}$,0.04070000000000107,eV,,,,,,,
Ba(Co$_{5}$As$_{3}$)$_{2}$,0.0018000000000002458,eV,,,,,,,
BPt,0.0,eV,,,,,,,
Te$_{3}$(PbO$_{4}$)$_{2}$,2.9897,eV,,,,,,,
Sc$_{11}$(AlGe$_{4}$)$_{2}$,0.0,eV,,,,,,,
In$_{9}$Pb$_{4}$S$_{17}$,0.0,eV,,,,,,,
TiSe$_{2}$,0.0,eV,,,,,,,
Th(Fe$_{2}$P)$_{2}$,0.0,eV,,,,,,,
Ba(InS$_{2}$)$_{2}$,2.3251000000000004,eV,,,,,,,
Ge$_{3}$Ru$_{2}$,0.3814000000000002,eV,,,,,,,
K$_{9}$Co$_{2}$S$_{7}$,0.3106,eV,,,,,,,
Ce(SO$_{4}$)$_{2}$,1.0223000000000002,eV,,,,,,,
K$_{4}$PbO$_{3}$,2.279,eV,,,,,,,
LuMg,0.0,eV,,,,,,,
Er$_{3}$Co$_{29}$(Si$_{2}$B$_{5}$)$_{2}$,0.012800000000000367,eV,,,,,,,
Eu(In$_{4}$Rh)$_{2}$,0.00649999999999995,eV,,,,,,,
BaSb$_{2}$,0.0,eV,,,,,,,
K$_{9}$Fe$_{2}$Se$_{7}$,0.3782000000000001,eV,,,,,,,
YTl$_{5}$Cu$_{2}$(NO$_{2}$)$_{12}$,0.0,eV,,,,,,,
TlCu$_{7}$S$_{4}$,0.6768000000000001,eV,,,,,,,
V$_{8}$Ga$_{41}$,0.008599999999999497,eV,,,,,,,
BaHg,0.0,eV,,,,,,,
In$_{4}$Ag$_{9}$,0.0,eV,,,,,,,
YNiSn$_{2}$,0.06320000000000014,eV,,,,,,,
In$_{3}$Cu$_{7}$,0.005799999999998917,eV,,,,,,,
Ca$_{3}$Sc$_{2}$(GeO$_{4}$)$_{3}$,3.4661999999999997,eV,,,,,,,
Fe$_{3}$Si,0.0,eV,,,,,,,
Rh$_{17}$S$_{15}$,0.0,eV,,,,,,,
ThNi$_{2}$,0.0,eV,,,,,,,
Sm$_{3}$Co$_{6}$Sn$_{5}$,0.0,eV,,,,,,,
NaN$_{3}$,4.0245,eV,,,,,,,
Yb$_{3}$TlC,0.0,eV,,,,,,,
CsIn$_{5}$S$_{8}$,1.2724999999999995,eV,,,,,,,
EuIn$_{4}$Pd,0.007500000000000284,eV,,,,,,,
PbSe,1.2735999999999998,eV,,,,,,,
PbSe,0.43100000000000005,eV,,,,,,,
Ta$_{2}$CuO$_{6}$,0.0,eV,,,,,,,
Tb(MnGe)$_{6}$,0.0,eV,,,,,,,
LaTiO$_{3}$,0.0,eV,,,,,,,
Sc$_{2}$SiB$_{2}$Ir$_{5}$,0.0,eV,,,,,,,
FeCo$_{2}$(CN)$_{6}$,0.0,eV,,,,,,,
LaIn$_{2}$Ir,0.0,eV,,,,,,,
Hf(MnGe)$_{6}$,0.0,eV,,,,,,,
Yb$_{3}$Sb$_{5}$O$_{12}$,0.0,eV,,,,,,,
Pb$_{3}$SO$_{6}$,2.9360000000000004,eV,,,,,,,
Ce(NiSn)$_{2}$,0.001300000000000523,eV,,,,,,,
MnSnAu,0.0030999999999998806,eV,,,,,,,
GdMgPt,0.006400000000000183,eV,,,,,,,
MnNi$_{2}$Ge,0.0,eV,,,,,,,
YB$_{6}$,0.0,eV,,,,,,,
EuBO$_{3}$,0.0021999999999999797,eV,,,,,,,
EuSnPd,0.0,eV,,,,,,,
TbInIr,0.0,eV,,,,,,,
Ti$_{5}$Sb$_{3}$,0.0,eV,,,,,,,
KFe$_{2}$S$_{3}$,0.0,eV,,,,,,,
ZrSbPd,0.0,eV,,,,,,,
Cu$_{6}$PbO$_{8}$,0.0,eV,,,,,,,
Dy$_{3}$(CuGe)$_{4}$,0.0,eV,,,,,,,
Nd$_{3}$Te$_{4}$,0.0,eV,,,,,,,
Sn$_{7}$Ir$_{3}$,0.0,eV,,,,,,,
HoGeRu,0.0,eV,,,,,,,
TlCd(NO$_{2}$)$_{3}$,0.0,eV,,,,,,,
Sm$_{2}$Ge$_{2}$Ru,0.0,eV,,,,,,,
B,0.0,eV,,,,,,,
Pt$_{2}$PbO$_{4}$,0.0,eV,,,,,,,
LuPd,0.0,eV,,,,,,,
Hf$_{2}$In$_{5}$,0.0,eV,,,,,,,
LuGeRu,0.0,eV,,,,,,,
Zn(InS$_{2}$)$_{2}$,1.1222000000000003,eV,,,,,,,
FeCu$_{2}$GeS$_{4}$,0.0,eV,,,,,,,
YIn$_{2}$Ni,0.0,eV,,,,,,,
LuCo$_{2}$,0.0,eV,,,,,,,
Nb$_{3}$In,0.0,eV,,,,,,,
In(TeMo)$_{3}$,0.0,eV,,,,,,,
Yb$_{4}$As$_{6}$Rh$_{7}$,0.0,eV,,,,,,,
UCrS$_{3}$,0.0,eV,,,,,,,
UGePt,0.0,eV,,,,,,,
Dy(CuGe)$_{2}$,0.0,eV,,,,,,,
Ba$_{2}$CuGe$_{2}$O$_{7}$,0.1876,eV,,,,,,,
Nb$_{3}$Pb,0.0,eV,,,,,,,
CeF$_{3}$,0.0026999999999999247,eV,,,,,,,
SbO$_{2}$,0.0,eV,,,,,,,
YbF$_{3}$,0.0,eV,,,,,,,
CeTaO$_{4}$,0.0,eV,,,,,,,
In$_{7}$Pt$_{3}$,0.0,eV,,,,,,,
Gd$_{3}$Pd$_{2}$,0.018299999999999983,eV,,,,,,,
AsRh,0.0,eV,,,,,,,
Tb$_{7}$O$_{12}$,0.014100000000000001,eV,,,,,,,
Zr(MnGe)$_{6}$,0.0,eV,,,,,,,
DyCuPb,0.0,eV,,,,,,,
TaRu$_{3}$C,0.0597000000000012,eV,,,,,,,
Hg$_{2}$Os$_{2}$O$_{7}$,0.0,eV,,,,,,,
CeGa$_{2}$,0.0,eV,,,,,,,
Tl$_{2}$Ru$_{2}$O$_{7}$,0.0,eV,,,,,,,
Ga$_{2}$Pt,0.0,eV,,,,,,,
CePO$_{4}$,0.11569999999999947,eV,,,,,,,
ZrCu,0.0,eV,,,,,,,
DyMnSi,0.0,eV,,,,,,,
Na$_{3}$Ir(NO$_{2}$)$_{6}$,2.6252999999999997,eV,,,,,,,
HoTiGe,0.0,eV,,,,,,,
V$_{3}$Pt,0.0,eV,,,,,,,
ErSiRh,0.03829999999999956,eV,,,,,,,
TbSbRh,0.0,eV,,,,,,,
EuGe$_{2}$,0.0,eV,,,,,,,
GdB$_{2}$Rh$_{3}$,0.03330000000000055,eV,,,,,,,
U(PdS$_{2}$)$_{2}$,0.0,eV,,,,,,,
ScCo,0.0,eV,,,,,,,
YRh$_{3}$C,0.0,eV,,,,,,,
Np(CoGe)$_{2}$,0.0,eV,,,,,,,
U$_{2}$S$_{3}$,0.0032999999999994145,eV,,,,,,,
Yb$_{2}$Ge$_{2}$O$_{7}$,0.0,eV,,,,,,,
DyGaPd,0.0,eV,,,,,,,
FeNi,0.0,eV,,,,,,,
Ti(FeGe)$_{6}$,0.008199999999999541,eV,,,,,,,
SmGa$_{4}$Co,0.0,eV,,,,,,,
Eu(ZnSi)$_{2}$,0.0,eV,,,,,,,
GdCd$_{3}$,0.0043000000000001926,eV,,,,,,,
TmMg$_{2}$,0.0,eV,,,,,,,
PuPd,0.0,eV,,,,,,,
BaIn$_{2}$,0.0,eV,,,,,,,
SiSe$_{2}$,2.1693,eV,,,,,,,
Ta$_{2}$InC,0.0,eV,,,,,,,
Sm$_{3}$(Ge$_{2}$Ru)$_{2}$,0.0032000000000005357,eV,,,,,,,
In$_{3}$Pd$_{5}$,0.0,eV,,,,,,,
HfPbS$_{3}$,1.452,eV,,,,,,,
DyGeAu,0.0,eV,,,,,,,
ThHg$_{2}$,0.0,eV,,,,,,,
Zr$_{2}$InCo$_{2}$,0.0,eV,,,,,,,
BaGePt,0.0,eV,,,,,,,
NaFeAs,0.0,eV,,,,,,,
In$_{2}$Au,0.0,eV,,,,,,,
Hf$_{2}$InC,0.0,eV,,,,,,,
TbCoC,0.0,eV,,,,,,,
UNiAs$_{2}$,0.0,eV,,,,,,,
Ce$_{2}$Co$_{17}$,0.0,eV,,,,,,,
Yb$_{2}$CaO$_{4}$,0.0,eV,,,,,,,
YbNiSn,0.0,eV,,,,,,,
NaSn$_{2}$(PO$_{4}$)$_{3}$,2.9663000000000004,eV,,,,,,,
PrNiSn,0.0,eV,,,,,,,
Ce(CoB)$_{4}$,0.0,eV,,,,,,,
Co$_{3}$Mo$_{3}$N,0.010899999999999466,eV,,,,,,,
Zr$_{6}$Ga$_{2}$Co,0.0,eV,,,,,,,
Mn(InS$_{2}$)$_{2}$,0.9208999999999996,eV,,,,,,,
LuCd,0.04339999999999966,eV,,,,,,,
Li$_{4}$PbO$_{4}$,1.4367,eV,,,,,,,
Cu$_{3}$SbS$_{4}$,0.03559999999999963,eV,,,,,,,
Zr$_{3}$NiSb$_{7}$,0.0,eV,,,,,,,
EuC$_{2}$(SN)$_{2}$,0.0,eV,,,,,,,
DyInAu,0.0,eV,,,,,,,
YTiSi,0.0,eV,,,,,,,
Er$_{5}$Mg$_{24}$,0.0,eV,,,,,,,
Dy(GePd)$_{2}$,0.0,eV,,,,,,,
Gd(GePd)$_{2}$,0.0019000000000000128,eV,,,,,,,
Ba$_{2}$SmNbO$_{6}$,2.8503,eV,,,,,,,
In$_{6}$Ge$_{2}$PtO$_{9}$,1.3445,eV,,,,,,,
Gd(GeRh)$_{2}$,0.0031999999999996476,eV,,,,,,,
DyCuSn,0.0,eV,,,,,,,
In$_{6}$TeO$_{12}$,1.0099,eV,,,,,,,
HfFeGe,0.0,eV,,,,,,,
Si$_{3}$Ru$_{2}$,0.5510999999999999,eV,,,,,,,
Dy$_{2}$Cu(GeO$_{3}$)$_{4}$,0.8678999999999999,eV,,,,,,,
UNi$_{4}$Sn,0.0,eV,,,,,,,
KIn$_{5}$S$_{8}$,1.2568000000000001,eV,,,,,,,
BaTm$_{2}$CuO$_{5}$,0.0,eV,,,,,,,
InN,9.999999999976694E-5,eV,,,,,,,
Cr$_{3}$AsN,0.0,eV,,,,,,,
Zr$_{2}$Ag,0.0,eV,,,,,,,
NaSbO$_{3}$,1.2740000000000005,eV,,,,,,,
Rb$_{2}$RhF$_{6}$,0.0,eV,,,,,,,
In$_{2}$S$_{3}$,0.8348999999999998,eV,,,,,,,
CePd$_{5}$,0.0,eV,,,,,,,
MnHg,0.0,eV,,,,,,,
LaLuO$_{3}$,4.452500000000001,eV,,,,,,,
MnCu$_{2}$Sn,0.0,eV,,,,,,,
HoSiIr,0.0,eV,,,,,,,
CeSiBO$_{5}$,0.17140000000000022,eV,,,,,,,
ZrMnSi,0.0,eV,,,,,,,
DyCoSn,0.0,eV,,,,,,,
TbInCu$_{4}$,0.0,eV,,,,,,,
GaPt$_{2}$,0.0,eV,,,,,,,
BaPbO$_{3}$,0.2652000000000001,eV,,,,,,,
UTe$_{3}$,0.0,eV,,,,,,,