formula,Property Band Gap,Property Band Gap units,Property Band gap,Property Band gap units,Temperature (Property Band gap),Temperature (Property Band gap) units,Property Color,Temperature (Property Color),Temperature (Property Color) units
U$_{5}$Re$_{5}$Si$_{9}$,0.0,eV,,,,,,,
CS$_{3}$(Br$_{2}$N)$_{2}$,1.2836,eV,,,,,,,
KNa$_{3}$Al$_{4}$(SiO$_{4}$)$_{4}$,4.4978,eV,,,,,,,
TeC$_{4}$(BrF$_{3}$)$_{2}$,2.5884,eV,,,,,,,
NaLa(SeO$_{3}$)$_{2}$,3.5572999999999997,eV,,,,,,,
NaLi$_{3}$SiO$_{4}$,4.4978,eV,,,,,,,
U$_{3}$O$_{8}$,0.06729999999999947,eV,,,,,,,
LiTa$_{3}$O$_{8}$,2.6101,eV,,,,,,,
Sr$_{3}$Ru$_{2}$O$_{7}$,0.0,eV,,,,,,,
V$_{4}$S$_{9}$Br$_{4}$,0.6574,eV,,,,,,,
Na$_{17}$Al$_{5}$O$_{16}$,2.444,eV,,,,,,,
P$_{2}$NCl$_{5}$O,3.7195,eV,,,,,,,
Nb(PS$_{4}$)$_{2}$,1.2752000000000001,eV,,,,,,,
Tb$_{2}$Cu(BO$_{2}$)$_{8}$,0.8675000000000002,eV,,,,,,,
SiO$_{2}$,5.4895,eV,,,,,,,
Ba$_{3}$Ta$_{6}$Si$_{4}$O$_{23}$,0.0,eV,,,,,,,
VF$_{3}$,1.5497999999999998,eV,,,,,,,
KTeOF$_{3}$,4.2120999999999995,eV,,,,,,,
Ba$_{3}$In$_{2}$Cl$_{2}$O$_{5}$,1.4312,eV,,,,,,,
LiZnPO$_{4}$,4.13,eV,,,,,,,
UTe$_{3}$Pb$_{2}$O$_{11}$,1.7889000000000004,eV,,,,,,,
Ba(PO$_{3}$)$_{2}$,5.4349,eV,,,,,,,
AlS$_{2}$NCl$_{6}$,1.6801,eV,,,,,,,
Zn$_{3}$(BO$_{3}$)$_{2}$,2.7175,eV,,,,,,,
SrTa$_{2}$Bi$_{2}$O$_{9}$,2.3040000000000003,eV,,,,,,,
Co$_{2}$P$_{2}$O$_{7}$,2.6659,eV,,,,,,,
Pr$_{6}$Si$_{4}$S$_{17}$,2.5372000000000003,eV,,,,,,,
Pr$_{5}$O$_{9}$,0,eV,,,,,,,
SrTiGeO$_{5}$,2.9253,eV,,,,,,,
Rb$_{3}$MnF$_{7}$,1.6078000000000001,eV,,,,,,,
Rb$_{2}$CoF$_{4}$,0.0,eV,,,,,,,
Tl$_{2}$SeO$_{4}$,3.3122,eV,,,,,,,
SiO$_{2}$,5.6777,eV,,,,,,,
AlS$_{2}$NCl$_{4}$,2.1062000000000003,eV,,,,,,,
Ti$_{6}$O$_{11}$,0.0,eV,,,,,,,
Sr$_{5}$As$_{3}$ClO$_{12}$,3.8285000000000005,eV,,,,,,,
Na$_{2}$NbAsO$_{6}$,3.1214,eV,,,,,,,
CaLaGaO$_{4}$,3.4555,eV,,,,,,,
LiS$_{2}$N(O$_{2}$F)$_{2}$,5.900399999999999,eV,,,,,,,
Ta$_{2}$CS$_{2}$,0.0,eV,,,,,,,
KNd(PO$_{3}$)$_{4}$,5.356,eV,,,,,,,
CuAs$_{2}$S$_{8}$N$_{8}$(OF$_{7}$)$_{4}$,2.5405,eV,,,,,,,
Na$_{2}$AlZnF$_{7}$,4.8225999999999996,eV,,,,,,,
Rb$_{8}$AlAu$_{3}$O$_{4}$,1.2244,eV,,,,,,,
CaP$_{4}$O$_{11}$,5.3424,eV,,,,,,,
LiAl(PO$_{3}$)$_{4}$,5.7440999999999995,eV,,,,,,,
La$_{6}$S$_{4}$BrN$_{3}$,1.4091000000000005,eV,,,,,,,
Al(PO$_{3}$)$_{3}$,5.512499999999999,eV,,,,,,,
Cs(OsO$_{3}$)$_{2}$,0.0,eV,,,,,,,
BaMnF$_{5}$,1.7942,eV,,,,,,,
TmAu$_{2}$,0.0,eV,,,,,,,
Ce$_{2}$Ti$_{2}$SiO$_{9}$,0.0,eV,,,,,,,
NaCrF$_{4}$,3.0525,eV,,,,,,,
Na$_{2}$USiO$_{6}$,1.9761000000000002,eV,,,,,,,
TlRe$_{3}$(S$_{2}$Cl)$_{2}$,1.8243,eV,,,,,,,
Ba$_{2}$Cu$_{7}$(AsO$_{4}$)$_{6}$,0.37860000000000005,eV,,,,,,,
PNF$_{2}$,5.6175,eV,,,,,,,
Rb$_{2}$Ga$_{2}$B$_{2}$O$_{7}$,3.6744999999999997,eV,,,,,,,
Pr$_{3}$CuSnS$_{7}$,1.7713999999999999,eV,,,,,,,
NaNb$_{2}$PO$_{8}$,1.9724,eV,,,,,,,
K$_{2}$Ge$_{3}$(BO$_{5}$)$_{2}$,3.8545,eV,,,,,,,
AuS$_{3}$(O$_{3}$F)$_{3}$,1.5564,eV,,,,,,,
Ba$_{9}$Nb$_{2}$CN$_{10}$O,1.7837999999999998,eV,,,,,,,
NiSnF$_{6}$,4.0928,eV,,,,,,,
Ag$_{2}$S,0.36839999999999984,eV,,,,,,,
Mg$_{5}$B$_{3}$O$_{9}$F,5.118399999999999,eV,,,,,,,
UTe$_{6}$(OF$_{5}$)$_{6}$,2.2523,eV,,,,,,,
Y$_{3}$BrO$_{4}$,4.2046,eV,,,,,,,
CaF$_{2}$,6.2478,eV,,,,,,,
NaNb$_{2}$AsO$_{8}$,2.6985,eV,,,,,,,
Li$_{2}$Ca$_{3}$Be$_{3}$Si$_{3}$(O$_{6}$F)$_{2}$,5.7347,eV,,,,,,,
Rb$_{2}$NaBiF$_{6}$,4.9249,eV,,,,,,,
NaY(SiO$_{3}$)$_{2}$,4.709,eV,,,,,,,
Ca$_{2}$Nb$_{2}$O$_{7}$,3.0913000000000004,eV,,,,,,,
AsS$_{3}$(NF$_{3}$)$_{2}$,1.4827000000000001,eV,,,,,,,
KSb$_{4}$F$_{13}$,4.7449,eV,,,,,,,
H$_{5}$CSN$_{2}$Cl,4.3408,eV,,,,,,,
Ta$_{2}$Pt$_{3}$S$_{8}$,0.6797000000000004,eV,,,,,,,
CuSeO$_{3}$,0.0,eV,,,,,,,
RbSiBiS$_{4}$,2.0817999999999994,eV,,,,,,,
LuSBr,2.7179,eV,,,,,,,
Li$_{9}$Ga$_{3}$P$_{8}$O$_{29}$,3.3283000000000005,eV,,,,,,,
NdSn$_{2}$P$_{10}$Cl$_{37}$O$_{12}$,3.0080999999999998,eV,,,,,,,
SiO$_{2}$,5.7315000000000005,eV,,,,,,,
SbSO$_{2}$F$_{5}$,3.4443,eV,,,,,,,
AgHgSBr,1.2604,eV,,,,,,,
Na$_{3}$NO$_{4}$,3.7504,eV,,,,,,,
Li$_{4}$Be$_{3}$As$_{3}$ClO$_{12}$,4.5888,eV,,,,,,,
YbNaP$_{2}$O$_{7}$,0.0,eV,,,,,,,
AsSXe$_{2}$(OF$_{3}$)$_{3}$,2.1909,eV,,,,,,,
KLaCr$_{2}$O$_{8}$,2.6531,eV,,,,,,,
Ho$_{2}$Ge$_{2}$O$_{7}$,3.7385,eV,,,,,,,
Bi$_{24}$Cl$_{10}$O$_{31}$,2.1162,eV,,,,,,,
Nd$_{4}$(GeS$_{4}$)$_{3}$,1.9952999999999994,eV,,,,,,,
Cs$_{2}$Li$_{3}$F$_{5}$,5.618399999999999,eV,,,,,,,
CsZr$_{2}$(PO$_{4}$)$_{3}$,4.3450999999999995,eV,,,,,,,
RbNa$_{5}$Be$_{8}$O$_{11}$,4.0918,eV,,,,,,,
Sr$_{10}$Sm$_{6}$Al$_{6}$Si$_{30}$N$_{54}$O$_{7}$,3.2561,eV,,,,,,,
CaTeO$_{3}$,3.2538,eV,,,,,,,
SbO$_{2}$,1.9056999999999995,eV,,,,,,,
HoCoSn,0.0,eV,,,,,,,
CdCu$_{2}$(BO$_{3}$)$_{2}$,0.10600000000000032,eV,,,,,,,
RbUSO$_{6}$F,2.2132,eV,,,,,,,
LiTaGeO$_{5}$,3.7864999999999993,eV,,,,,,,
K$_{3}$Ho(SiO$_{3}$)$_{3}$,3.7625,eV,,,,,,,
SbAs$_{3}$(S$_{2}$F$_{3}$)$_{2}$,2.3306,eV,,,,,,,
BaUTiO$_{6}$,1.9643000000000002,eV,,,,,,,
Er$_{3}$O$_{2}$F$_{5}$,5.6188,eV,,,,,,,
TbCl$_{2}$F,4.8595999999999995,eV,,,,,,,
Na$_{2}$Pd(NO$_{3}$)$_{4}$,1.7034,eV,,,,,,,
H$_{5}$CNO$_{3}$,5.1511,eV,,,,,,,
HgCS(OF)$_{3}$,3.3526,eV,,,,,,,
K$_{2}$MnF$_{6}$,3.1934,eV,,,,,,,
EuHSO$_{5}$,0.0,eV,,,,,,,
Na$_{3}$La$_{2}$(BO$_{3}$)$_{3}$,3.7901999999999996,eV,,,,,,,
SiO$_{2}$,5.685499999999999,eV,,,,,,,
Nd$_{2}$SiO$_{5}$,4.7758,eV,,,,,,,
TlPb$_{8}$Br$_{9}$O$_{4}$,2.983,eV,,,,,,,
Cs$_{2}$V(PO$_{4}$)$_{2}$,2.9685,eV,,,,,,,
Cu$_{3}$B$_{4}$Pb$_{2}$O$_{11}$,0.0,eV,,,,,,,
S$_{2}$XeNO$_{4}$F$_{3}$,2.7588999999999997,eV,,,,,,,
K$_{2}$RuBr$_{5}$NO,1.6301,eV,,,,,,,
BaBi$_{4}$(ClO$_{3}$)$_{2}$,0.0,eV,,,,,,,
Ba$_{17}$Y$_{16}$Zn$_{8}$Pt$_{4}$O$_{57}$,2.2817,eV,,,,,,,
AlPO$_{4}$,5.4802,eV,,,,,,,
SiO$_{2}$,5.6113,eV,,,,,,,
SiO$_{2}$,5.6417,eV,,,,,,,
Na$_{3}$Zn(BO$_{2}$)$_{5}$,4.2757,eV,,,,,,,
B$_{6}$H$_{21}$C$_{5}$N$_{2}$O,4.4939,eV,,,,,,,
ZnCu$_{3}$H$_{6}$(ClO$_{3}$)$_{2}$,0.06559999999999988,eV,,,,,,,
Ca$_{4}$Si$_{2}$O$_{7}$F$_{2}$,4.678,eV,,,,,,,
VXe$_{2}$F$_{17}$,2.4287,eV,,,,,,,
C(SN)$_{2}$,0.5421,eV,,,,,,,
Nd$_{5}$Te$_{2}$Cl$_{3}$O$_{10}$,3.3381,eV,,,,,,,
KAlSiO$_{4}$,4.5482,eV,,,,,,,
NaZn(PO$_{3}$)$_{3}$,4.8259,eV,,,,,,,
K$_{2}$NaAl$_{3}$F$_{12}$,6.8339,eV,,,,,,,
AsS$_{4}$N$_{5}$F$_{6}$,2.4391,eV,,,,,,,
AgH$_{11}$C$_{4}$(SO)$_{3}$,3.4244,eV,,,,,,,
TiFe(BiO$_{3}$)$_{2}$,0.0,eV,,,,,,,
BaMgSiO$_{4}$,4.113899999999999,eV,,,,,,,
SrCuAs$_{2}$O$_{7}$,0.5214999999999999,eV,,,,,,,
Ba$_{4}$NaAuO$_{8}$,1.3961999999999999,eV,,,,,,,
NaLi$_{2}$BO$_{3}$,3.9589,eV,,,,,,,
TaP$_{4}$(SCl)$_{5}$,2.1765,eV,,,,,,,
SnSe$_{2}$(Cl$_{4}$O)$_{2}$,2.7633,eV,,,,,,,
Al(HO)$_{3}$,5.2031,eV,,,,,,,
ZnTe$_{6}$O$_{13}$,2.9724000000000004,eV,,,,,,,
Cr$_{2}$HgSe$_{4}$,0.0,eV,,,,,,,
SiO$_{2}$,5.4814,eV,,,,,,,
K$_{3}$NbAs$_{2}$O$_{9}$,3.1394,eV,,,,,,,
Li$_{9}$Al$_{3}$P$_{8}$O$_{29}$,5.3492999999999995,eV,,,,,,,
CaH$_{2}$(CO$_{2}$)$_{2}$,4.6823,eV,,,,,,,
Cs$_{2}$GeP$_{4}$O$_{13}$,4.1237,eV,,,,,,,
K$_{2}$Al$_{2}$B$_{2}$O$_{7}$,4.5949,eV,,,,,,,
K$_{4}$Sb$_{2}$N$_{3}$O$_{9}$F$_{7}$,2.916,eV,,,,,,,
Na$_{2}$ZnFeF$_{7}$,2.9496,eV,,,,,,,
Na$_{3}$SO$_{4}$F,5.1205,eV,,,,,,,
K$_{2}$Se(SO$_{3}$)$_{2}$,2.9779,eV,,,,,,,
H$_{6}$NO$_{2}$F,3.5905,eV,,,,,,,
RbP$_{2}$WO$_{8}$,3.4378,eV,,,,,,,
NaNd(Si$_{3}$O$_{7}$)$_{2}$,4.7954,eV,,,,,,,
K$_{6}$Ti$_{2}$O$_{7}$,3.455,eV,,,,,,,
CeAg$_{6}$(NO$_{3}$)$_{9}$,0.0026999999999999247,eV,,,,,,,
CuSb$_{2}$(XeF$_{4}$)$_{6}$,0,eV,,,,,,,
Sr$_{5}$B$_{3}$BrO$_{9}$,3.8991,eV,,,,,,,
K$_{9}$Sm$_{3}$Si$_{12}$(O$_{16}$F)$_{2}$,4.5766,eV,,,,,,,
MgF$_{2}$,6.2865,eV,,,,,,,
Cr$_{3}$AgO$_{8}$,1.1888999999999998,eV,,,,,,,
K$_{2}$CuF$_{4}$,0.0,eV,,,,,,,
K$_{3}$Ti$_{3}$(PO$_{4}$)$_{5}$,2.5785,eV,,,,,,,
K$_{2}$SbPO$_{6}$,2.5161000000000002,eV,,,,,,,
NaMnF$_{3}$,2.6871,eV,,,,,,,
Np$_{2}$H$_{12}$SO$_{14}$,0.24380000000000024,eV,,,,,,,
CsZnB(PO$_{4}$)$_{2}$,5.0817,eV,,,,,,,
LiUP(H$_{4}$O$_{5}$)$_{2}$,2.5244,eV,,,,,,,
Li$_{2}$Ca$_{2}$Si$_{5}$O$_{13}$,4.7981,eV,,,,,,,
SiH$_{8}$C$_{2}$NClO,5.0017000000000005,eV,,,,,,,
NbPCl$_{8}$O,2.3986,eV,,,,,,,
CsLa(SO$_{4}$)$_{2}$,4.3605,eV,,,,,,,
TaBiO$_{4}$,2.9008999999999996,eV,,,,,,,
Zn(InS$_{2}$)$_{2}$,0.13070000000000048,eV,,,,,,,
Pr$_{4}$Se$_{3}$(O$_{5}$F$_{3}$)$_{2}$,3.6763000000000003,eV,,,,,,,
CaCO$_{3}$,4.9436,eV,,,,,,,
Na$_{3}$B$_{5}$SO$_{8}$,3.8692,eV,,,,,,,
AlCuAsO$_{5}$,0.4567999999999999,eV,,,,,,,
PNF$_{2}$,5.8154,eV,,,,,,,
Er$_{3}$B$_{5}$O$_{12}$,5.3497,eV,,,,,,,
TeC$_{6}$(ClF$_{7}$)$_{2}$,3.3301999999999996,eV,,,,,,,
K$_{2}$Ba(NO$_{2}$)$_{4}$,2.1776999999999997,eV,,,,,,,
EuK(PO$_{3}$)$_{4}$,0.0019000000000000128,eV,,,,,,,
LiLa$_{5}$Ti$_{8}$O$_{24}$,1.9348999999999998,eV,,,,,,,
K(Mo$_{6}$S$_{7}$)$_{2}$,0.0,eV,,,,,,,
LiTaSiO$_{5}$,3.7965,eV,,,,,,,
NbCoTe$_{2}$,0.0,eV,,,,,,,
Nd$_{3}$CuSnS$_{7}$,1.7587000000000002,eV,,,,,,,
BaCa$_{2}$C$_{2}$(O$_{3}$F)$_{2}$,4.7298,eV,,,,,,,
BaZr$_{4}$(PO$_{4}$)$_{6}$,4.3446,eV,,,,,,,
SbPOF$_{8}$,4.6913,eV,,,,,,,
Na$_{3}$FeF$_{6}$,4.1281,eV,,,,,,,
In$_{2}$H$_{10}$S$_{3}$O$_{17}$,4.0257,eV,,,,,,,
Hg$_{3}$SO$_{6}$,0.5529,eV,,,,,,,
KBa$_{2}$(PO$_{3}$)$_{5}$,5.1425,eV,,,,,,,
Mg$_{2}$SiO$_{4}$,4.4414,eV,,,,,,,
K$_{2}$RuN$_{3}$Cl$_{3}$O$_{5}$,1.7252,eV,,,,,,,
H$_{11}$C$_{4}$NO$_{10}$,3.4288,eV,,,,,,,
Rb$_{3}$Hg$_{2}$S$_{3}$ClO$_{12}$,2.3627000000000002,eV,,,,,,,
Ba$_{5}$B$_{3}$CNO$_{9}$,3.3351,eV,,,,,,,
Na$_{2}$Sn$_{2}$C$_{3}$(O$_{2}$F)$_{3}$,2.4736000000000002,eV,,,,,,,
Ag$_{15}$P$_{4}$S$_{16}$Cl$_{3}$,1.2258,eV,,,,,,,
Ce$_{2}$Zr$_{2}$O$_{7}$,0.0,eV,,,,,,,
K$_{2}$ZrS$_{4}$,1.8944,eV,,,,,,,
Ta$_{2}$Te$_{4}$Br$_{10}$O,0.9964999999999999,eV,,,,,,,
NaAlSiO$_{4}$,4.5992999999999995,eV,,,,,,,
SiO$_{2}$,5.5748,eV,,,,,,,
CrF$_{3}$,2.838,eV,,,,,,,
Ca$_{2}$Zr(SiO$_{3}$)$_{4}$,4.8495,eV,,,,,,,
La$_{2}$Pd$_{2}$O$_{5}$,1.1382000000000003,eV,,,,,,,
EuSi$_{2}$(NO)$_{2}$,0.3055999999999992,eV,,,,,,,
Ag$_{4}$GeO$_{4}$,0.0,eV,,,,,,,
Cs$_{3}$CuTeS$_{9}$,1.3247,eV,,,,,,,
K$_{6}$Nb$_{4}$S$_{25}$,1.5194,eV,,,,,,,
La$_{3}$NbO$_{7}$,2.8479,eV,,,,,,,
SrP$_{2}$(XeF$_{6}$)$_{3}$,2.6253,eV,,,,,,,
SbCl(OF$_{3}$)$_{2}$,1.9104999999999999,eV,,,,,,,
Sm$_{3}$Si$_{2}$S$_{8}$I,2.5119999999999996,eV,,,,,,,
MnClO$_{3}$,2.0584000000000002,eV,,,,,,,
Zr$_{2}$P$_{2}$O$_{9}$,4.1039,eV,,,,,,,
SbTe$_{7}$SXeCl(OF$_{4}$)$_{9}$,1.5847000000000002,eV,,,,,,,
Rb$_{2}$Zr(IO$_{3}$)$_{6}$,3.3526999999999996,eV,,,,,,,
XeF$_{6}$,2.7851,eV,,,,,,,
Na$_{6}$Cu$_{9}$(PO$_{4}$)$_{8}$,0.17789999999999973,eV,,,,,,,
Ge(PbS$_{2}$)$_{2}$,2.0309,eV,,,,,,,
Bi$_{3}$Pt$_{3}$O$_{11}$,0.0,eV,,,,,,,
YbNdS$_{3}$,0.0,eV,,,,,,,
Ca$_{3}$Ta$_{4}$(O$_{6}$F)$_{2}$,3.8739,eV,,,,,,,
Ba$_{4}$Ho(RuO$_{4}$)$_{3}$,0.03569999999999984,eV,,,,,,,
RbIn$_{3}$F$_{10}$,3.4383,eV,,,,,,,
La$_{4}$Ti$_{9}$O$_{24}$,2.8636,eV,,,,,,,
KRb$_{2}$CoF$_{6}$,0.0,eV,,,,,,,
In$_{2}$Ag$_{2}$GeS$_{6}$,0.9558,eV,,,,,,,
Cs$_{2}$Al$_{2}$P$_{2}$O$_{9}$,4.899699999999999,eV,,,,,,,
AsPbClO$_{2}$,3.3353,eV,,,,,,,
K$_{2}$Zn(GeO$_{3}$)$_{2}$,2.8724999999999996,eV,,,,,,,
NaMgF$_{3}$,5.926200000000001,eV,,,,,,,
U$_{3}$O$_{8}$,0.06709999999999994,eV,,,,,,,
InHSeO$_{4}$,3.4370999999999996,eV,,,,,,,
KNbSi$_{2}$O$_{7}$,3.431,eV,,,,,,,
P$_{3}$S$_{3}$N$_{6}$F$_{5}$,2.1283000000000003,eV,,,,,,,
CdSb$_{6}$(S$_{2}$I)$_{4}$,1.5565000000000002,eV,,,,,,,
GdP$_{4}$H$_{4}$NO$_{12}$,3.4734,eV,,,,,,,
SnO$_{2}$,0.5726000000000004,eV,,,,,,,
KZn$_{4}$(PO$_{4}$)$_{3}$,3.83,eV,,,,,,,
K$_{3}$Bi$_{2}$(PO$_{4}$)$_{3}$,3.7815999999999996,eV,,,,,,,
Sr$_{2}$NiTeO$_{6}$,2.3726,eV,,,,,,,
KBS$_{4}$(ClO$_{3}$)$_{4}$,4.6223,eV,,,,,,,
AsC$_{4}$S$_{2}$Cl$_{2}$O$_{2}$F$_{13}$,3.0753,eV,,,,,,,
Sr$_{2}$Cu(BO$_{3}$)$_{2}$,0.022400000000000198,eV,,,,,,,
KBe(PO$_{3}$)$_{3}$,5.558199999999999,eV,,,,,,,
DyCu(MoO$_{4}$)$_{2}$,2.0647,eV,,,,,,,
K$_{2}$SN$_{2}$O$_{5}$,3.2988999999999997,eV,,,,,,,
Na$_{2}$Be(SiO$_{3}$)$_{2}$,4.0017000000000005,eV,,,,,,,
BaZn$_{2}$Si$_{2}$O$_{7}$,3.3032000000000004,eV,,,,,,,
AgHg$_{2}$NO$_{5}$,0.5517,eV,,,,,,,
SrEr$_{2}$O$_{4}$,3.7705,eV,,,,,,,
K$_{3}$Ni$_{2}$F$_{7}$,4.6238,eV,,,,,,,
Sb$_{2}$SNF$_{11}$,3.5649,eV,,,,,,,
Ca$_{7}$Cu(PtO$_{6}$)$_{2}$,0.0,eV,,,,,,,