formula,Property Band Gap,Property Band Gap units,Property Band gap,Property Band gap units,Temperature (Property Band gap),Temperature (Property Band gap) units,Property Color,Temperature (Property Color),Temperature (Property Color) units
Al$_{2}$P$_{2}$H$_{9}$NO$_{11}$,5.2559000000000005,eV,,,,,,,
Sr$_{7}$(H$_{6}$Cl)$_{2}$,3.8615000000000004,eV,,,,,,,
Sr$_{7}$(H$_{6}$Br)$_{2}$,3.7046,eV,,,,,,,
NdHSO$_{5}$,5.5593,eV,,,,,,,
HgH$_{12}$C$_{2}$(Br$_{2}$N$_{3}$)$_{2}$,2.7644,eV,,,,,,,
NdH$_{3}$(CO$_{2}$)$_{3}$,4.1895999999999995,eV,,,,,,,
Zn$_{2}$PH$_{2}$CO$_{7}$,3.5229999999999997,eV,,,,,,,
LaP,0.0,eV,,,,,,,
LiHSeO$_{3}$,4.3019,eV,,,,,,,
HgHOF,1.448,eV,,,,,,,
KHF$_{2}$,6.9611,eV,,,,,,,
Li$_{2}$H$_{2}$SO$_{5}$,5.5815,eV,,,,,,,
TaCr$_{2}$,0.0,eV,,,,,,,
NaH$_{2}$N,1.9459,eV,,,,,,,
Na$_{3}$H$_{5}$(CO$_{4}$)$_{2}$,4.6108,eV,,,,,,,
LiHO,4.0057,eV,,,,,,,
CoCuH$_{18}$N$_{6}$Cl$_{5}$,0.49540000000000006,eV,,,,,,,
H$_{8}$PtN$_{2}$(ClO)$_{2}$,1.7313,eV,,,,,,,
CaHCl,3.8367999999999993,eV,,,,,,,
SrHCl,4.044700000000001,eV,,,,,,,
BaHCl,3.4827000000000004,eV,,,,,,,
BaHI,2.8161,eV,,,,,,,
H$_{2}$SeO$_{4}$,3.3830999999999998,eV,,,,,,,
Th$_{2}$Zn,0.0,eV,,,,,,,
NaH,3.7382,eV,,,,,,,
Ca$_{3}$Al$_{2}$H$_{6}$S(OF)$_{8}$,5.7404,eV,,,,,,,
CuH$_{4}$(ClO)$_{2}$,0.4636,eV,,,,,,,
H$_{8}$S(NO$_{2}$)$_{2}$,4.9871,eV,,,,,,,
Ca(HO)$_{2}$,4.1119,eV,,,,,,,
Ca$_{3}$Al$_{2}$(HO)$_{12}$,4.1187000000000005,eV,,,,,,,
Be$_{2}$BHO$_{4}$,5.8665,eV,,,,,,,
SrGe(HO$_{2}$)$_{2}$,4.1282000000000005,eV,,,,,,,
SrH$_{12}$(ClO$_{3}$)$_{2}$,5.047499999999999,eV,,,,,,,
MgH$_{12}$SO$_{9}$,4.9641,eV,,,,,,,
MgTe(H$_{4}$O$_{3}$)$_{3}$,4.4186,eV,,,,,,,
NdMg$_{2}$,0.0,eV,,,,,,,
NaHO,2.802,eV,,,,,,,
H$_{5}$BrNO,4.3535,eV,,,,,,,
LiAs(HO$_{2}$)$_{2}$,3.9942,eV,,,,,,,
LuHCl,0.0,eV,,,,,,,
Rb$_{3}$H(SeO$_{4}$)$_{2}$,3.6220999999999997,eV,,,,,,,
BaS$_{3}$,1.3727,eV,,,,,,,
YbP,0.0,eV,,,,,,,
PH$_{3}$O$_{4}$,5.9151,eV,,,,,,,
HBr,0.0,eV,,,,,,,
BaH$_{4}$O$_{3}$,4.2591,eV,,,,,,,
KMgH$_{9}$(CO$_{5}$)$_{2}$,5.0253000000000005,eV,,,,,,,
LiH$_{6}$NO$_{6}$,3.2720000000000002,eV,,,,,,,
H$_{2}$,7.4833,eV,,,,,,,
H$_{6}$CN$_{3}$ClO,5.2019,eV,,,,,,,
YbPd$_{3}$,0.0,eV,,,,,,,
MgH$_{20}$S$_{2}$(NO$_{7}$)$_{2}$,5.2087,eV,,,,,,,
CaH$_{12}$(ClO$_{3}$)$_{2}$,4.9878,eV,,,,,,,
Ca$_{2}$Al$_{3}$Si$_{3}$HO$_{13}$,5.036199999999999,eV,,,,,,,
NaGaH$_{4}$,4.7345,eV,,,,,,,
Th$_{2}$Se$_{5}$,0.7171000000000003,eV,,,,,,,
HN,4.1558,eV,,,,,,,
TcH$_{4}$NO$_{4}$,3.2941,eV,,,,,,,
K$_{2}$HgH$_{2}$Cl$_{4}$O,2.7153,eV,,,,,,,
TiH$_{12}$(NF$_{2}$)$_{4}$,4.5618,eV,,,,,,,
ZnH$_{8}$(NO$_{5}$)$_{2}$,3.4534000000000002,eV,,,,,,,
YTl$_{3}$,0.0,eV,,,,,,,
H$_{4}$CSN$_{2}$,3.6174999999999997,eV,,,,,,,
LiPH$_{2}$O$_{3}$,6.9796,eV,,,,,,,
AlH$_{3}$,2.1979,eV,,,,,,,
PH$_{6}$NO$_{4}$,5.3208,eV,,,,,,,
H$_{2}$O$_{2}$,4.1497,eV,,,,,,,
NaHO,2.8228,eV,,,,,,,
KPHNO$_{2}$,5.2353000000000005,eV,,,,,,,
BaH$_{6}$Cl$_{2}$O$_{11}$,5.297000000000001,eV,,,,,,,
KLi$_{2}$(HO)$_{3}$,2.796,eV,,,,,,,
Cs$_{3}$MgH$_{5}$,2.6053,eV,,,,,,,
Rb$_{3}$MgH$_{5}$,3.0927000000000002,eV,,,,,,,
RbCaH$_{3}$,3.2736,eV,,,,,,,
Sb$_{3}$Rh,0.0,eV,,,,,,,
K(BH)$_{3}$,5.0099,eV,,,,,,,
Cs(BH)$_{3}$,4.3266,eV,,,,,,,
Na$_{2}$H$_{2}$Pd,0.0,eV,,,,,,,
CuH$_{2}$SeO$_{5}$,0.5822,eV,,,,,,,
K$_{2}$MgH$_{4}$,3.4385,eV,,,,,,,
SrH$_{2}$I$_{2}$O$_{7}$,3.5296999999999996,eV,,,,,,,
YH$_{12}$(ClO$_{2}$)$_{3}$,5.3678,eV,,,,,,,
KP(HO$_{2}$)$_{2}$,5.4325,eV,,,,,,,
HoCo$_{2}$,0.0,eV,,,,,,,
Na$_{3}$AsH$_{18}$Se$_{4}$O$_{9}$,1.329,eV,,,,,,,
HIO$_{3}$,3.213,eV,,,,,,,
MgH$_{2}$SeO$_{5}$,3.4068,eV,,,,,,,
ZnH$_{2}$SeO$_{5}$,2.7049000000000003,eV,,,,,,,
NdP$_{2}$H$_{9}$O$_{10}$,5.2907,eV,,,,,,,
NiH$_{12}$C$_{2}$(SN$_{3}$)$_{2}$,1.4359,eV,,,,,,,
HS$_{7}$N,2.0186,eV,,,,,,,
K$_{3}$H(SeO$_{4}$)$_{2}$,3.5508,eV,,,,,,,
ScSn$_{2}$,0.028900000000000148,eV,,,,,,,
Cs$_{3}$H(SeO$_{4}$)$_{2}$,3.7309,eV,,,,,,,
GaH$_{18}$C$_{3}$(N$_{3}$F$_{2}$)$_{3}$,4.975899999999999,eV,,,,,,,
LiH$_{6}$BrO$_{7}$,3.123,eV,,,,,,,
NaH$_{6}$ClO$_{5}$,3.0156,eV,,,,,,,
GdH$_{12}$(ClO$_{2}$)$_{3}$,3.1176,eV,,,,,,,
YHg,0.0,eV,,,,,,,
H$_{6}$S(NO$_{2}$)$_{2}$,5.4258,eV,,,,,,,
H$_{4}$CSN$_{2}$,4.3252,eV,,,,,,,
U$_{2}$Si(H$_{2}$O$_{5}$)$_{2}$,1.9874,eV,,,,,,,
Al$_{2}$P$_{3}$(HO$_{3}$)$_{3}$,6.2699,eV,,,,,,,
BeH$_{8}$SO$_{8}$,5.4388,eV,,,,,,,
ZnH$_{12}$N$_{4}$(ClO$_{4}$)$_{2}$,4.336,eV,,,,,,,
C,2.4558999999999997,eV,,,,,,,
NaS,1.2348,eV,,,,,,,
NaZn$_{2}$P$_{2}$HO$_{8}$,3.9677,eV,,,,,,,
Zn$_{2}$PHO$_{5}$,3.0356,eV,,,,,,,
MgH$_{12}$(BrO$_{6}$)$_{2}$,4.9018,eV,,,,,,,
Rb$_{2}$HBrO,3.3099,eV,,,,,,,
CeHSe,0.0,eV,,,,,,,
HoHSe,1.4980999999999995,eV,,,,,,,
CrCuH$_{18}$N$_{6}$Cl$_{5}$,0.5223,eV,,,,,,,
Cd$_{2}$H$_{3}$ClO$_{3}$,2.4219,eV,,,,,,,
CaZnAsHO$_{5}$,2.622,eV,,,,,,,
H$_{4}$NClO,5.4648,eV,,,,,,,
NaSi,1.1326,eV,,,,,,,
RbH$_{3}$(SeO$_{3}$)$_{2}$,4.1504,eV,,,,,,,
Si$_{3}$H$_{9}$N,4.1831,eV,,,,,,,
Na$_{2}$H$_{10}$SO$_{5}$,3.3539,eV,,,,,,,
YPt$_{3}$,0.0,eV,,,,,,,
ZrP$_{2}$(HO$_{3}$)$_{2}$,4.1126,eV,,,,,,,
K$_{3}$AlH$_{6}$,2.8773,eV,,,,,,,
CoH$_{9}$(CN$_{2}$)$_{3}$,2.8895,eV,,,,,,,
K$_{2}$CuH$_{12}$(SO$_{7}$)$_{2}$,0.5616,eV,,,,,,,
CaAl$_{2}$,0.0,eV,,,,,,,
MgH$_{2}$SO$_{5}$,5.5024,eV,,,,,,,
H$_{2}$O,5.4391,eV,,,,,,,
CaH$_{12}$(BrO$_{3}$)$_{2}$,4.1372,eV,,,,,,,
AlP(H$_{2}$O$_{3}$)$_{2}$,5.4239,eV,,,,,,,
NaAlH$_{24}$(SO$_{10}$)$_{2}$,5.3109,eV,,,,,,,
ErHCl,0.0,eV,,,,,,,
CaMgNiH$_{4}$,1.8729999999999998,eV,,,,,,,
AgH$_{2}$ClO$_{5}$,2.8242,eV,,,,,,,
AgBH$_{2}$OF$_{4}$,3.044,eV,,,,,,,
Mg$_{5}$Pd$_{2}$,0.0,eV,,,,,,,
PHF$_{2}$,3.7857,eV,,,,,,,
CaB$_{2}$H$_{10}$O$_{9}$,5.2523,eV,,,,,,,
SrHClO,4.9798,eV,,,,,,,
AgH$_{5}$S$_{2}$O$_{9}$,3.5225000000000004,eV,,,,,,,
Gd(HO)$_{3}$,3.2235,eV,,,,,,,
Dy(HO)$_{3}$,3.6966,eV,,,,,,,
Ho(HO)$_{3}$,3.6657,eV,,,,,,,
Y(HO)$_{3}$,3.7510000000000003,eV,,,,,,,
Mg$_{2}$PHO$_{5}$,5.266,eV,,,,,,,
Ga$_{3}$Pd$_{5}$,0.0,eV,,,,,,,
ScHCl,0.0,eV,,,,,,,
Ta$_{2}$H,0,eV,,,,,,,
Th$_{2}$AlH$_{4}$,0.0,eV,,,,,,,
KH,3.4330999999999996,eV,,,,,,,
H$_{4}$INO$_{4}$,2.4863,eV,,,,,,,
Ni$_{5}$Sb$_{2}$,0.0,eV,,,,,,,
BaH$_{4}$(IO)$_{2}$,3.6575000000000006,eV,,,,,,,
GaH$_{4}$NF$_{4}$,5.1596,eV,,,,,,,
GdH$_{2}$,0.0,eV,,,,,,,
CuH,0.5728,eV,,,,,,,
PrH$_{2}$,0.0,eV,,,,,,,
NdH$_{2}$,0.0,eV,,,,,,,
Mg$_{3}$Si$_{2}$H$_{4}$O$_{9}$,4.2476,eV,,,,,,,
CdF$_{2}$,2.8977000000000004,eV,,,,,,,
SrAg$_{5}$,0.0,eV,,,,,,,
CuH$_{12}$Br$_{4}$(NO)$_{2}$,0.4456,eV,,,,,,,
LiAlSi$_{2}$H$_{2}$O$_{7}$,4.858,eV,,,,,,,
NaP(HO$_{2}$)$_{2}$,5.2635000000000005,eV,,,,,,,
CsRuH$_{18}$N$_{6}$(ClO$_{2}$)$_{4}$,0,eV,,,,,,,
Rb$_{2}$ZnH$_{12}$(SO$_{7}$)$_{2}$,4.845,eV,,,,,,,
SnH$_{8}$(NF$_{3}$)$_{2}$,5.114599999999999,eV,,,,,,,
H$_{10}$SO$_{8}$,5.508,eV,,,,,,,
Ca$_{2}$HN,1.6789,eV,,,,,,,
LiP$_{5}$,1.2571000000000003,eV,,,,,,,
CaAsH$_{5}$O$_{6}$,4.0367,eV,,,,,,,
Tb(HO)$_{3}$,3.584,eV,,,,,,,
Rb(BH)$_{6}$,5.5329999999999995,eV,,,,,,,
NdH$_{2}$ClO$_{2}$,4.8667,eV,,,,,,,
Sr$_{3}$Al$_{2}$(HO)$_{12}$,3.8858999999999995,eV,,,,,,,
ReH$_{4}$NO$_{4}$,4.0859000000000005,eV,,,,,,,
CaP$_{2}$(HO)$_{4}$,5.5901,eV,,,,,,,
GdH$_{3}$,0.0,eV,,,,,,,
KRuH$_{18}$N$_{6}$(ClO$_{2}$)$_{4}$,0.0,eV,,,,,,,
AlH$_{18}$Ru(NF)$_{6}$,0.0,eV,,,,,,,
Cs(BH)$_{6}$,5.3849,eV,,,,,,,
SO$_{3}$,5.1448,eV,,,,,,,
CsHSeO$_{4}$,3.6209000000000002,eV,,,,,,,
MgAlH$_{4}$O$_{2}$F$_{5}$,5.837,eV,,,,,,,
Na$_{5}$ScH$_{4}$(C$_{2}$O$_{7}$)$_{2}$,4.8217,eV,,,,,,,
CuP$_{2}$H$_{8}$CN$_{2}$O$_{5}$,0.3761,eV,,,,,,,
AcH$_{2}$,0.0,eV,,,,,,,
LiLa$_{2}$HO$_{3}$,1.9418999999999995,eV,,,,,,,
LiCe$_{2}$HO$_{3}$,0.0,eV,,,,,,,
DyTl$_{3}$,0.0,eV,,,,,,,
LiNd$_{2}$HO$_{3}$,1.8718999999999997,eV,,,,,,,
DyH$_{2}$,0.0,eV,,,,,,,
HoH$_{2}$,0.0,eV,,,,,,,
LaH$_{2}$,0.0,eV,,,,,,,
NbH$_{2}$,0.0,eV,,,,,,,
ZrH$_{2}$,0.0,eV,,,,,,,
CuP$_{2}$(HO)$_{4}$,0.6392,eV,,,,,,,
PH$_{8}$N$_{2}$O$_{3}$F,4.7799,eV,,,,,,,
YF$_{3}$,7.533799999999999,eV,,,,,,,
BH$_{3}$NF$_{3}$,7.7194,eV,,,,,,,
TiH$_{2}$,0.0,eV,,,,,,,
CuH$_{2}$(SeO$_{3}$)$_{2}$,0.0,eV,,,,,,,
Li$_{2}$H$_{2}$SeO$_{5}$,3.9951999999999996,eV,,,,,,,
DyIr$_{3}$,0.0,eV,,,,,,,
CaPH$_{3}$O$_{4}$,6.067200000000001,eV,,,,,,,
SrPH$_{3}$O$_{4}$,5.7674,eV,,,,,,,
H$_{2}$SO$_{4}$,6.027,eV,,,,,,,
KH$_{6}$C$_{2}$S$_{2}$NO$_{4}$,5.3158,eV,,,,,,,
PdSe$_{2}$,0.5105,eV,,,,,,,
RbH$_{6}$C$_{2}$S$_{2}$NO$_{4}$,5.1913,eV,,,,,,,
CsGaP$_{3}$HO$_{10}$,4.6041,eV,,,,,,,
Rb$_{2}$ZnH$_{12}$(SeO$_{7}$)$_{2}$,3.6833,eV,,,,,,,
NaH$_{3}$O$_{2}$,4.3479,eV,,,,,,,
MgP$_{2}$(H$_{8}$O$_{5}$)$_{2}$,5.6363,eV,,,,,,,
Tl$_{2}$CuH$_{12}$(SO$_{7}$)$_{2}$,0.7928999999999999,eV,,,,,,,
Rb$_{2}$CuH$_{12}$(SO$_{7}$)$_{2}$,0.6003999999999999,eV,,,,,,,
CrHgH$_{18}$N$_{6}$Cl$_{5}$,2.6843000000000004,eV,,,,,,,
LiHF$_{2}$,8.0448,eV,,,,,,,
SrB$_{6}$,0.0,eV,,,,,,,
PW,0.0,eV,,,,,,,
H$_{2}$S,0.0,eV,,,,,,,
Th$_{4}$H$_{15}$,0.0,eV,,,,,,,
CaHI,3.5269,eV,,,,,,,
SrHI,3.5902000000000003,eV,,,,,,,
H$_{6}$CN$_{4}$O,5.0424,eV,,,,,,,
CrH$_{2}$,0.0,eV,,,,,,,
RbP(HO)$_{2}$,5.1547,eV,,,,,,,
KPH$_{3}$O$_{4}$F,5.727499999999999,eV,,,,,,,
ScH$_{3}$Br$_{3}$N,3.1435000000000004,eV,,,,,,,
ZnHgAsHO$_{5}$,1.3969,eV,,,,,,,
Sc$_{2}$P$_{3}$(HO$_{3}$)$_{3}$,4.6108,eV,,,,,,,
ErGa$_{2}$,0.0,eV,,,,,,,
H$_{8}$Pt(NCl$_{3}$)$_{2}$,1.7694,eV,,,,,,,
Na$_{2}$CuH$_{6}$C$_{2}$O$_{9}$,0.6966000000000001,eV,,,,,,,
Na$_{2}$CaH$_{10}$C$_{2}$O$_{11}$,4.6291,eV,,,,,,,
US,0.0,eV,,,,,,,
HCNO,4.480700000000001,eV,,,,,,,
H$_{5}$CN$_{3}$O$_{4}$,3.5182,eV,,,,,,,
H$_{6}$CSN$_{4}$,3.424,eV,,,,,,,
ScH$_{2}$,0.0,eV,,,,,,,
K(BH)$_{6}$,5.5295000000000005,eV,,,,,,,
LaZn$_{5}$,0.0,eV,,,,,,,
K$_{3}$B$_{12}$H$_{12}$I,4.6690000000000005,eV,,,,,,,
Rb$_{3}$B$_{12}$H$_{12}$I,4.6171,eV,,,,,,,
CuHOF,0.0,eV,,,,,,,
KP(HO$_{2}$)$_{2}$,5.3633,eV,,,,,,,
KP(HO$_{2}$)$_{2}$,5.2175,eV,,,,,,,
Ca$_{2}$BHN$_{2}$,3.0023999999999997,eV,,,,,,,
ZnP$_{4}$H$_{16}$(NO$_{8}$)$_{2}$,4.9641,eV,,,,,,,
K(BH)$_{5}$,4.6289,eV,,,,,,,
CaH$_{20}$C$_{4}$S$_{4}$(NO$_{6}$)$_{2}$,5.6987,eV,,,,,,,
CdH$_{20}$C$_{4}$S$_{4}$(NO$_{6}$)$_{2}$,4.837,eV,,,,,,,
KGdP$_{2}$H$_{4}$O$_{9}$,3.2754000000000003,eV,,,,,,,
AlH$_{36}$C$_{12}$S$_{6}$(IO$_{2}$)$_{3}$,3.3691,eV,,,,,,,
GaH$_{36}$C$_{12}$S$_{6}$(IO$_{2}$)$_{3}$,3.0307,eV,,,,,,,
InH$_{36}$C$_{12}$S$_{6}$(IO$_{2}$)$_{3}$,2.4953,eV,,,,,,,
PH$_{9}$C$_{3}$Br$_{3}$N,2.666,eV,,,,,,,
NpH$_{2}$,0.0,eV,,,,,,,
LuH$_{2}$,0.0,eV,,,,,,,
HPd,0.0,eV,,,,,,,
HS$_{7}$N,2.8747,eV,,,,,,,
Sr$_{2}$H$_{6}$Ru,2.2349000000000006,eV,,,,,,,
HgHClO$_{4}$,2.3817,eV,,,,,,,
SrP$_{2}$(HO)$_{4}$,5.430400000000001,eV,,,,,,,
P$_{2}$H$_{4}$PbO$_{4}$,3.9446000000000003,eV,,,,,,,
KC,3.2603,eV,,,,,,,
ZrGe$_{2}$,0.0,eV,,,,,,,
CdAs$_{2}$HF$_{13}$,3.9677,eV,,,,,,,
Mg$_{3}$P$_{4}$H$_{48}$(NO$_{15}$)$_{2}$,5.400499999999999,eV,,,,,,,
CdH$_{8}$C$_{4}$(S$_{2}$N$_{3}$)$_{2}$,3.2788,eV,,,,,,,
AlSiH$_{9}$C$_{3}$Cl$_{2}$O,5.4030000000000005,eV,,,,,,,
ErTl$_{3}$,0.0,eV,,,,,,,
Sr(H$_{9}$O$_{5}$)$_{2}$,4.9945,eV,,,,,,,
ZnH$_{6}$(CO$_{3}$)$_{2}$,4.4692,eV,,,,,,,
CdP$_{2}$(HO)$_{4}$,4.3757,eV,,,,,,,
CaMg$_{2}$,0.0,eV,,,,,,,
RbHCO$_{2}$,4.4247,eV,,,,,,,
H$_{2}$C(NO)$_{2}$,2.2824,eV,,,,,,,
UH$_{12}$(ClO$_{2}$)$_{3}$,0.5445000000000002,eV,,,,,,,
YH$_{5}$(SeO$_{4}$)$_{2}$,4.4593,eV,,,,,,,
MgH$_{4}$(ClO)$_{2}$,5.3195,eV,,,,,,,
MgH$_{2}$Cl$_{2}$O,5.370699999999999,eV,,,,,,,
Sr$_{5}$As$_{3}$H,0.6763999999999997,eV,,,,,,,
Sm$_{5}$Sb$_{3}$H,0.0,eV,,,,,,,
SrTl,0.0,eV,,,,,,,
K$_{3}$GeH$_{3}$S$_{3}$O$_{2}$,2.9783,eV,,,,,,,
CsBeH$_{3}$,3.2171000000000003,eV,,,,,,,
LiBeH$_{3}$,2.3768000000000002,eV,,,,,,,
ZnH$_{12}$(SO$_{6}$)$_{2}$,5.0235,eV,,,,,,,
BiP$_{4}$HO$_{12}$,4.9882,eV,,,,,,,
HoCo$_{5}$,0.0,eV,,,,,,,
H$_{7}$Se$_{2}$NO$_{6}$,4.2222,eV,,,,,,,
KBe(H$_{2}$N)$_{3}$,2.8166,eV,,,,,,,
CdH$_{4}$NCl$_{3}$,3.5397,eV,,,,,,,
H$_{3}$CSO$_{4}$F$_{3}$,6.383800000000001,eV,,,,,,,
CaAs(HO)$_{7}$,4.1423,eV,,,,,,,
EuZn$_{5}$,0.0,eV,,,,,,,
CaP$_{2}$(HO$_{2}$)$_{4}$,5.649699999999999,eV,,,,,,,
CuH$_{6}$CN$_{2}$O$_{3}$,0.5795000000000001,eV,,,,,,,
PH$_{10}$N$_{2}$O$_{4}$F,4.9132,eV,,,,,,,
CaAs$_{2}$(HO$_{2}$)$_{4}$,3.7749,eV,,,,,,,
K$_{2}$ZnH$_{12}$(SO$_{7}$)$_{2}$,4.8902,eV,,,,,,,
Na$_{2}$AsH$_{15}$O$_{11}$,4.1686000000000005,eV,,,,,,,
Na$_{2}$Si(H$_{4}$O$_{3}$)$_{3}$,4.6935,eV,,,,,,,
IrF$_{3}$,0.9611000000000001,eV,,,,,,,
H$_{5}$N$_{2}$ClO$_{4}$,5.449800000000001,eV,,,,,,,
TlH$_{4}$NCl$_{4}$,2.4129,eV,,,,,,,
CrCoH$_{18}$(CN$_{2}$)$_{6}$,1.8694,eV,,,,,,,
H$_{5}$ClO$_{2}$,5.2183,eV,,,,,,,
Mg(H$_{2}$N)$_{2}$,3.0137,eV,,,,,,,
CaH$_{8}$(ClO$_{2}$)$_{2}$,5.3176,eV,,,,,,,
CaPH$_{5}$O$_{6}$,5.3416,eV,,,,,,,
ZrNi$_{5}$,0.0,eV,,,,,,,
CaPHO$_{4}$,5.4321,eV,,,,,,,
MgB$_{3}$H$_{15}$O$_{13}$,5.0784,eV,,,,,,,
MgH$_{14}$SO$_{11}$,5.1954,eV,,,,,,,
MgH$_{8}$SO$_{8}$,5.2584,eV,,,,,,,
AlP(H$_{2}$O$_{3}$)$_{2}$,5.408099999999999,eV,,,,,,,
MgH$_{10}$SO$_{9}$,4.9785,eV,,,,,,,
CaAlSiHO$_{5}$,5.242800000000001,eV,,,,,,,
LiCd$_{4}$Ge$_{5}$HO$_{15}$,1.8714,eV,,,,,,,
CdP$_{2}$H$_{6}$O$_{7}$,4.8402,eV,,,,,,,
PH$_{4}$I,3.6789,eV,,,,,,,
Cd$_{3}$P$_{2}$,0.0018000000000002458,eV,,,,,,,
K$_{2}$LiAlH$_{6}$,2.4373,eV,,,,,,,
K$_{2}$NaAlH$_{6}$,2.3449,eV,,,,,,,
Na$_{2}$LiAlH$_{6}$,2.8483,eV,,,,,,,
MnH,0,eV,,,,,,,
MoH,0.0,eV,,,,,,,
SrLiH$_{3}$,1.8195000000000001,eV,,,,,,,
H$_{2}$Se,0.0,eV,,,,,,,
BaH$_{2}$Cl$_{2}$O$_{7}$,5.1664,eV,,,,,,,
CaHBr,4.1139,eV,,,,,,,
SrHBr,3.8289,eV,,,,,,,
BaHBr,3.2114,eV,,,,,,,
HgH$_{2}$SeO$_{5}$,1.4815,eV,,,,,,,
KH$_{2}$N,2.0569,eV,,,,,,,
CrCuH$_{18}$Br$_{5}$N$_{6}$,0.0298,eV,,,,,,,
DyHg,0.0,eV,,,,,,,
CdCoH$_{18}$N$_{6}$Cl$_{5}$,2.5006,eV,,,,,,,
Si$_{2}$H$_{2}$O$_{3}$,6.3669,eV,,,,,,,
KHSeO$_{3}$,4.2347,eV,,,,,,,
Ca$_{5}$As$_{4}$(HO$_{2}$)$_{10}$,3.8236,eV,,,,,,,
K$_{2}$MgH$_{12}$(SO$_{7}$)$_{2}$,5.196,eV,,,,,,,
GaRh,0.0,eV,,,,,,,
Na$_{3}$SbH$_{18}$S$_{4}$O$_{9}$,2.2043,eV,,,,,,,
Nd$_{2}$H$_{16}$S$_{3}$O$_{20}$,5.4556,eV,,,,,,,
LiH$_{2}$SO$_{4}$,5.1899,eV,,,,,,,
FeCoH$_{18}$(NCl)$_{6}$,0.8114,eV,,,,,,,
CaP$_{2}$H$_{6}$O$_{7}$,6.4004,eV,,,,,,,
SrH$_{2}$N$_{2}$O$_{5}$,2.2801,eV,,,,,,,
MgH$_{6}$(SO$_{4}$)$_{4}$,5.9617,eV,,,,,,,
H$_{12}$OsN$_{5}$Cl$_{3}$O,2.3888000000000003,eV,,,,,,,
H$_{3}$SO$_{4}$F,5.4855,eV,,,,,,,
MgH$_{4}$S$_{2}$O$_{9}$,4.2343,eV,,,,,,,
GaP$_{3}$(HO$_{5}$)$_{2}$,4.9811,eV,,,,,,,
H$_{8}$S(NO$_{2}$)$_{2}$,5.072699999999999,eV,,,,,,,
CaAl$_{4}$Si$_{2}$(HO$_{6}$)$_{2}$,4.5346,eV,,,,,,,
P$_{4}$Se$_{5}$,1.8240999999999998,eV,,,,,,,
BePH$_{4}$NO$_{4}$,5.082699999999999,eV,,,,,,,
PuH$_{8}$(SO$_{6}$)$_{2}$,0.011599999999999833,eV,,,,,,,
SrH$_{2}$Br$_{2}$O$_{7}$,4.0296,eV,,,,,,,
NaZn$_{2}$H$_{3}$(SO$_{4}$)$_{2}$,4.3334,eV,,,,,,,
NbRh$_{3}$,0.0,eV,,,,,,,
CaSn,0.0,eV,,,,,,,
ZnH$_{12}$SeO$_{10}$,3.9156,eV,,,,,,,
ZnH$_{2}$(SO$_{4}$)$_{2}$,4.6505,eV,,,,,,,
H$_{2}$,9.3623,eV,,,,,,,
MgAl$_{2}$P$_{2}$(HO)$_{18}$,5.0097000000000005,eV,,,,,,,
Na$_{6}$Zn$_{3}$P$_{4}$H$_{6}$O$_{19}$,3.9779999999999998,eV,,,,,,,
ZrH$_{3}$NF$_{4}$,4.7782,eV,,,,,,,
CdH$_{4}$(BrO$_{4}$)$_{2}$,3.9715,eV,,,,,,,
BaH$_{2}$I$_{2}$O$_{7}$,3.6479,eV,,,,,,,
YH$_{3}$,0.0,eV,,,,,,,
RbAl(H$_{2}$N)$_{4}$,0.0,eV,,,,,,,
Rb$_{2}$CaH$_{4}$,3.3032,eV,,,,,,,
P$_{2}$O$_{5}$,5.347200000000001,eV,,,,,,,
CuH$_{2}$SO$_{5}$,0.375,eV,,,,,,,
CsAlH$_{24}$(SeO$_{10}$)$_{2}$,4.2024,eV,,,,,,,
CrH$_{8}$C$_{4}$(S$_{2}$N$_{3}$)$_{2}$,1.1524999999999999,eV,,,,,,,
CaH$_{4}$SeO$_{6}$,3.8552,eV,,,,,,,
K$_{2}$H$_{12}$Ru(SO$_{7}$)$_{2}$,2.0820999999999996,eV,,,,,,,
TiFe$_{2}$,0.0,eV,,,,,,,
MgH$_{2}$(SeO$_{4}$)$_{2}$,3.2742,eV,,,,,,,
ZnH$_{2}$(SeO$_{4}$)$_{2}$,2.7238,eV,,,,,,,
As$_{2}$Os,0.6546000000000003,eV,,,,,,,
AlH$_{18}$C$_{3}$(N$_{3}$F$_{2}$)$_{3}$,5.3705,eV,,,,,,,
Rb$_{2}$CuH$_{4}$(Cl$_{2}$O)$_{2}$,0.7801,eV,,,,,,,
LiB$_{2}$H$_{3}$O$_{5}$,4.8897,eV,,,,,,,
Ga$_{2}$P$_{3}$(HO$_{3}$)$_{3}$,5.1674,eV,,,,,,,
BaHClO,5.1255999999999995,eV,,,,,,,
MgH$_{8}$(IO$_{5}$)$_{2}$,4.1474,eV,,,,,,,
Tb$_{2}$O$_{3}$,3.9406999999999996,eV,,,,,,,
Be$_{3}$As$_{2}$(H$_{2}$O$_{5}$)$_{2}$,3.9653,eV,,,,,,,
NdH$_{5}$(SeO$_{4}$)$_{2}$,4.4543,eV,,,,,,,
MgH$_{10}$(SeO$_{5}$)$_{2}$,4.7347,eV,,,,,,,
TbO$_{2}$,0.0,eV,,,,,,,
LiZnPH$_{2}$O$_{5}$,4.024900000000001,eV,,,,,,,
K$_{2}$HBrO,3.5292,eV,,,,,,,
YbIn,0.0,eV,,,,,,,
ZnH$_{2}$SeO$_{4}$,4.339899999999999,eV,,,,,,,
Ca$_{2}$B$_{5}$H$_{2}$ClO$_{10}$,5.0182,eV,,,,,,,
TiF$_{3}$,0.0,eV,,,,,,,
Er$_{2}$O$_{3}$,4.1066,eV,,,,,,,
Al$_{3}$Si$_{2}$H$_{3}$O$_{10}$,5.476000000000001,eV,,,,,,,
CaAl$_{2}$Si$_{2}$(H$_{2}$O$_{5}$)$_{2}$,5.0625,eV,,,,,,,
Rb$_{2}$MgH$_{8}$(CO$_{5}$)$_{2}$,4.535299999999999,eV,,,,,,,
K$_{2}$AlH$_{2}$OF$_{5}$,5.9967,eV,,,,,,,
LiP(HO$_{2}$)$_{2}$,5.5778,eV,,,,,,,
BeH$_{8}$(NF$_{2}$)$_{2}$,6.648,eV,,,,,,,
LiH$_{4}$SeNO$_{4}$,3.8634,eV,,,,,,,
RbGdH$_{2}$S$_{2}$O$_{9}$,2.6781,eV,,,,,,,
AlH$_{10}$N$_{2}$OF$_{5}$,6.1343,eV,,,,,,,
PrCu$_{5}$,0.05119999999999969,eV,,,,,,,
KHCN$_{2}$,3.8763,eV,,,,,,,
LuFe$_{2}$,0.0,eV,,,,,,,
Mg$_{3}$P$_{2}$(HO)$_{16}$,4.9866,eV,,,,,,,
ErH$_{3}$(SO$_{4}$)$_{3}$,5.494300000000001,eV,,,,,,,
Er(HO)$_{3}$,3.7167000000000003,eV,,,,,,,
NaAlBP$_{2}$H$_{3}$O$_{10}$,5.7883000000000004,eV,,,,,,,
DyPt$_{3}$,0.0,eV,,,,,,,
YH$_{2}$,0.0,eV,,,,,,,
TiH$_{8}$N$_{2}$F$_{5}$,0.2357999999999998,eV,,,,,,,
KZnP$_{2}$H$_{5}$O$_{9}$,4.4686,eV,,,,,,,
YH$_{3}$(SO$_{4}$)$_{3}$,5.288,eV,,,,,,,
ZnBP$_{2}$H$_{4}$NO$_{8}$,4.8340000000000005,eV,,,,,,,
SmH$_{2}$,0.0,eV,,,,,,,
UH$_{3}$,0.0,eV,,,,,,,
ErAu$_{2}$,0.0,eV,,,,,,,
Rb$_{4}$Mg$_{3}$H$_{10}$,3.4271,eV,,,,,,,
ZnH$_{8}$C$_{2}$N$_{4}$(ClO)$_{2}$,4.7564,eV,,,,,,,
CsHF$_{2}$,6.5186,eV,,,,,,,
Zr$_{6}$Al$_{2}$CoH$_{10}$,0.0,eV,,,,,,,
Zr$_{6}$Ni(SnH$_{5}$)$_{2}$,0.0,eV,,,,,,,
Be$_{3}$P$_{2}$(H$_{2}$O$_{5}$)$_{2}$,5.8481,eV,,,,,,,
ErHg,0.0,eV,,,,,,,
RbRuH$_{18}$N$_{6}$(ClO$_{2}$)$_{4}$,0.2243,eV,,,,,,,
RbZn$_{2}$P$_{2}$HO$_{8}$,3.9293,eV,,,,,,,
CdS,1.0461,eV,,,,,,,
Zn(H$_{2}$N)$_{2}$,2.3711,eV,,,,,,,
MgSb$_{2}$(H$_{4}$O$_{3}$)$_{6}$,3.2826999999999997,eV,,,,,,,
DyS,0.0,eV,,,,,,,
SrCaB$_{5}$H$_{2}$ClO$_{10}$,4.962199999999999,eV,,,,,,,
ZnH$_{8}$SO$_{8}$,4.6838,eV,,,,,,,
PH$_{5}$NO$_{3}$F,5.2949,eV,,,,,,,
ZnH$_{4}$(CO$_{3}$)$_{2}$,3.1831,eV,,,,,,,
NiH,0.0,eV,,,,,,,
SrO,3.2748,eV,,,,,,,
PuH$_{2}$,0,eV,,,,,,,
RbH,2.9163,eV,,,,,,,
HRh,0.0,eV,,,,,,,
TaH$_{2}$,0.0,eV,,,,,,,
TbH$_{2}$,0.0,eV,,,,,,,
Th(TiH$_{3}$)$_{2}$,0.0,eV,,,,,,,
TmH$_{2}$,0.0,eV,,,,,,,
VH$_{2}$,0.0,eV,,,,,,,
RbGa$_{2}$P$_{2}$H$_{5}$O$_{11}$,4.1797,eV,,,,,,,
Re$_{3}$As$_{7}$,0.0,eV,,,,,,,
NaZnP$_{3}$(H$_{4}$O$_{5}$)$_{2}$,5.668799999999999,eV,,,,,,,
YAg,0.0,eV,,,,,,,
ScH$_{3}$NCl$_{3}$,3.8496,eV,,,,,,,
K$_{2}$MgH$_{8}$(SO$_{6}$)$_{2}$,5.18,eV,,,,,,,
Na$_{3}$H$_{6}$Rh,3.1017,eV,,,,,,,
CdH$_{6}$(CO$_{3}$)$_{2}$,4.5222999999999995,eV,,,,,,,
SmAg,0.0,eV,,,,,,,
AlBP$_{2}$H$_{5}$NO$_{9}$,5.2797,eV,,,,,,,
ZnH$_{20}$Se$_{2}$(NO$_{7}$)$_{2}$,3.637,eV,,,,,,,
RbGaBP$_{2}$HO$_{9}$,4.662599999999999,eV,,,,,,,
AlH$_{36}$C$_{12}$S$_{6}$(ClO$_{2}$)$_{3}$,3.7828,eV,,,,,,,
KHoRuH$_{8}$C$_{6}$(N$_{3}$O$_{2}$)$_{2}$,3.6899,eV,,,,,,,
H$_{12}$C$_{4}$NClO$_{4}$,5.4665,eV,,,,,,,
Mg$_{16}$Si$_{8}$HO$_{32}$,0.0,eV,,,,,,,
Rb$_{3}$B$_{12}$H$_{12}$Br,4.7451,eV,,,,,,,
Rb$_{3}$B$_{12}$H$_{12}$Cl,4.9513,eV,,,,,,,
Cs$_{3}$B$_{12}$H$_{12}$Cl,4.9577,eV,,,,,,,
OsSe$_{2}$,0.0,eV,,,,,,,
Sr$_{2}$Al$_{3}$Si$_{3}$HO$_{13}$,4.9047,eV,,,,,,,
LaNiSnH$_{2}$,0.0,eV,,,,,,,
CaH$_{2}$,0.6534999999999997,eV,,,,,,,
Mg$_{2}$Cu,0.0,eV,,,,,,,
NaBH$_{4}$,6.2163,eV,,,,,,,
KTiH$_{2}$S$_{2}$O$_{9}$,0.22050000000000036,eV,,,,,,,
LaFe$_{5}$H$_{2}$,0.0,eV,,,,,,,
KBH$_{4}$,1.4027,eV,,,,,,,
LiBeH$_{3}$,4.8344000000000005,eV,,,,,,,
LiBeH$_{3}$,4.8835999999999995,eV,,,,,,,
CaC$_{2}$,1.3416000000000001,eV,,,,,,,
Na$_{5}$Al$_{3}$H$_{14}$,2.5843000000000003,eV,,,,,,,
MnH$_{16}$C$_{4}$(Br$_{2}$N)$_{2}$,2.7217000000000002,eV,,,,,,,
DyMn$_{2}$,0.0,eV,,,,,,,
SiP$_{3}$H$_{29}$C$_{10}$BrN,4.0491,eV,,,,,,,
DyH$_{4}$I$_{3}$O$_{11}$,3.7184999999999997,eV,,,,,,,
H$_{4}$N$_{2}$O$_{3}$,3.2767,eV,,,,,,,
BaYCo$_{2}$O$_{5}$,0.043299999999999894,eV,,,,,,,
SmSn$_{3}$,0.0,eV,,,,,,,
Sr$_{2}$Co(ClO)$_{2}$,0.5993000000000004,eV,,,,,,,
CoTe(PbO$_{3}$)$_{2}$,0.0,eV,,,,,,,
KCoO$_{2}$,0.9921,eV,,,,,,,
Ba$_{2}$CoWO$_{6}$,0.0,eV,,,,,,,
MnCoO$_{3}$,1.0859000000000005,eV,,,,,,,
Co(SbO$_{3}$)$_{2}$,0.2839999999999998,eV,,,,,,,
Sr$_{3}$Co$_{2}$Cl$_{2}$O$_{5}$,0.052200000000000024,eV,,,,,,,
K$_{2}$CoPb(NO$_{2}$)$_{6}$,0.0,eV,,,,,,,
DyCoO$_{3}$,0.07350000000000012,eV,,,,,,,
PrCoO$_{3}$,0.0,eV,,,,,,,
LiCoO$_{2}$,0.6623000000000001,eV,,,,,,,
NdCoO$_{3}$,0.14219999999999988,eV,,,,,,,
PrCoO$_{3}$,0.08899999999999952,eV,,,,,,,
BaNdCo$_{2}$O$_{5}$,0.13560000000000016,eV,,,,,,,
CoCO$_{3}$,2.3971999999999998,eV,,,,,,,
BaLa(CoO$_{3}$)$_{2}$,0.03399999999999981,eV,,,,,,,