formula,Property Band Gap,Property Band Gap units,Property Band gap,Property Band gap units,Temperature (Property Band gap),Temperature (Property Band gap) units,Property Color,Temperature (Property Color),Temperature (Property Color) units
Sc$_{2}$FeS$_{4}$,0.0,eV,,,,,,,
Gd$_{3}$InC,9.000000000001229E-4,eV,,,,,,,
GdCuSb$_{2}$,0.056699999999999307,eV,,,,,,,
GdTl$_{3}$,0.0039999999999995595,eV,,,,,,,
Ta$_{2}$InCuTe$_{4}$,0.0,eV,,,,,,,
NbNiTe$_{2}$,0.0,eV,,,,,,,
PbSO$_{3}$,3.6372000000000004,eV,,,,,,,
Ba$_{2}$Y(CuO$_{2}$)$_{4}$,0.0,eV,,,,,,,
LaCu$_{2}$,0.0,eV,,,,,,,
Yb(FeGe)$_{2}$,0.010200000000000209,eV,,,,,,,
In(Mo$_{3}$Se$_{4}$)$_{2}$,0.005399999999999849,eV,,,,,,,
FeSn,0.0,eV,,,,,,,
U$_{3}$MnSb$_{5}$,0.0,eV,,,,,,,
GdSnAu,0.037199999999999456,eV,,,,,,,
InPt$_{3}$,0.0,eV,,,,,,,
BPd$_{3}$,0.0,eV,,,,,,,
Lu$_{4}$CoB$_{13}$,0.0,eV,,,,,,,
CdInS$_{2}$,0.0,eV,,,,,,,
U$_{3}$Te$_{4}$,0.0,eV,,,,,,,
ScInPt$_{2}$,0.0,eV,,,,,,,
TmAgPb,0.0,eV,,,,,,,
HfNiSn,0.0,eV,,,,,,,
Sc$_{2}$VB$_{2}$Ir$_{5}$,0.0,eV,,,,,,,
CuSO$_{4}$,0.0,eV,,,,,,,
PbS,2.0909000000000004,eV,,,,,,,
La(FeGe)$_{2}$,0.0,eV,,,,,,,
Ba$_{3}$NaIr$_{2}$O$_{9}$,0.0,eV,,,,,,,
Nb$_{3}$Sb,0.0,eV,,,,,,,
NdCoGe,0.0,eV,,,,,,,
PrSb$_{2}$Pd,0.0,eV,,,,,,,
SrIn$_{2}$Pt,0.0,eV,,,,,,,
GdMg$_{3}$,0.002200000000000202,eV,,,,,,,
TbSiRh,0.022199999999999775,eV,,,,,,,
CoSn,0.0,eV,,,,,,,
HoMgIn,0.0,eV,,,,,,,
ScIn$_{3}$,0.0,eV,,,,,,,
TbHg,0.0,eV,,,,,,,
V$_{2}$P,0.0,eV,,,,,,,
Pr(MnGe)$_{2}$,0.0,eV,,,,,,,
Pr$_{3}$SnC,0.0,eV,,,,,,,
Cu$_{3}$AsS$_{4}$,0.0,eV,,,,,,,
Ba$_{2}$In$_{2}$O$_{5}$,0.919,eV,,,,,,,
U(Al$_{5}$Fe)$_{2}$,0.0,eV,,,,,,,
CaPb$_{3}$,0.0,eV,,,,,,,
Ce$_{3}$PbC,0.0,eV,,,,,,,
Cr$_{2}$As,0.0,eV,,,,,,,
GdMnSi,0.0,eV,,,,,,,
InAgSe$_{2}$,0.01089999999999991,eV,,,,,,,
NaPb$_{3}$,0.0,eV,,,,,,,
YSiNi,0.0,eV,,,,,,,
Ga$_{3}$Co,0.0,eV,,,,,,,
Ni$_{3}$Se$_{2}$,0.0,eV,,,,,,,
Ba(CoAs)$_{2}$,0.0,eV,,,,,,,
MnCoGe,0.0,eV,,,,,,,
MgIn$_{3}$,0.0,eV,,,,,,,
LiGa$_{2}$Ru,0.0,eV,,,,,,,
LaAgGe,0.0,eV,,,,,,,
DyB$_{2}$,0.0,eV,,,,,,,
DySiPt,0.0,eV,,,,,,,
DyMgIn,0.0,eV,,,,,,,
Nd$_{2}$InGe$_{2}$,0.0,eV,,,,,,,
Ge$_{2}$Pt$_{3}$,0.0,eV,,,,,,,
Eu(BIr)$_{4}$,0.03829999999999956,eV,,,,,,,
DyCoSn$_{2}$,0.0,eV,,,,,,,
Ni$_{3}$B,0.0,eV,,,,,,,
Ca$_{3}$In,0.0,eV,,,,,,,
LaIn,0.0,eV,,,,,,,
EuRbS$_{2}$,0.0,eV,,,,,,,
VCo$_{2}$Si,0.0,eV,,,,,,,
ZrSiCuP,0.0,eV,,,,,,,
NbAs,0.0,eV,,,,,,,
La$_{3}$InB,0.0,eV,,,,,,,
Yb$_{2}$InGe$_{2}$,0.0,eV,,,,,,,
Eu(AlSi)$_{2}$,0.0,eV,,,,,,,
U(SiNi)$_{2}$,0.0,eV,,,,,,,
TbMnSi,0.0,eV,,,,,,,
PdPb$_{2}$,0.0,eV,,,,,,,
Tb$_{5}$Si$_{3}$,0.0,eV,,,,,,,
LuTl$_{3}$,0.09039999999999981,eV,,,,,,,
NdPb$_{3}$,0.0,eV,,,,,,,
U(FeGe)$_{2}$,0.0,eV,,,,,,,
CeTl$_{3}$,0.0,eV,,,,,,,
PbC$_{2}$(SN)$_{2}$,2.6512000000000002,eV,,,,,,,
Tb$_{3}$In$_{5}$S$_{12}$,1.3428000000000004,eV,,,,,,,
Tb$_{2}$In,0.0,eV,,,,,,,
ThTl$_{3}$,0.0,eV,,,,,,,
LuGeRh,0.0,eV,,,,,,,
NaMnAs,0.0,eV,,,,,,,
EuGePd,0.012700000000000156,eV,,,,,,,
CeNiGe,0.001100000000000101,eV,,,,,,,
Th$_{3}$Si$_{2}$,0.0,eV,,,,,,,
Y$_{2}$Co$_{3}$Si$_{5}$,0.0,eV,,,,,,,
SbRh,0.0,eV,,,,,,,
LaSi$_{2}$,0.0,eV,,,,,,,
Ba$_{2}$NbInO$_{6}$,3.3486000000000002,eV,,,,,,,
SiPd$_{3}$,0.0,eV,,,,,,,
K$_{2}$Cd(CN)$_{4}$,6.000500000000001,eV,,,,,,,
La$_{2}$(Zn$_{2}$Ge)$_{3}$,0.0,eV,,,,,,,
DyTiGe,0.0,eV,,,,,,,
YbGa$_{5}$Co,0.0,eV,,,,,,,
NaIn,0.0,eV,,,,,,,
U(CoP)$_{2}$,0.0,eV,,,,,,,
Pr$_{2}$O$_{3}$,3.7544999999999997,eV,,,,,,,
Ho(MnSn)$_{6}$,0.0,eV,,,,,,,
UGa$_{2}$,0.0,eV,,,,,,,
TbIn$_{5}$Rh,0.0,eV,,,,,,,
SmCuPb,0.0,eV,,,,,,,
BaMnGe,0.0,eV,,,,,,,
RbF,5.9045,eV,,,,,,,
NdMn$_{12}$,0.0,eV,,,,,,,
Y$_{2}$Ru$_{2}$O$_{7}$,0.0,eV,,,,,,,
PuPt$_{2}$,0.0,eV,,,,,,,
TbSiRu,0.0,eV,,,,,,,
Sm(MnGe)$_{2}$,0.0,eV,,,,,,,
Nd$_{2}$ScSi$_{2}$,0.0,eV,,,,,,,
Y(MnGe)$_{2}$,0.0,eV,,,,,,,
CeCrGe$_{3}$,0.0,eV,,,,,,,
PbF$_{3}$,1.8821999999999999,eV,,,,,,,
Gd$_{2}$InPd$_{2}$,0.01729999999999965,eV,,,,,,,
DyMn$_{12}$,0.0,eV,,,,,,,
Li$_{2}$BPd$_{3}$,0.0,eV,,,,,,,
EuCu$_{5}$,0.03960000000000008,eV,,,,,,,
NpAl$_{2}$,0.0,eV,,,,,,,
Ti$_{2}$PbC,0.0,eV,,,,,,,
Sn$_{4}$Pt,0.0,eV,,,,,,,
TmCuPb,0.0,eV,,,,,,,
CeInCu,0.0,eV,,,,,,,
SmIn$_{2}$Rh,0.0,eV,,,,,,,
Dy(MnGe)$_{6}$,0.0,eV,,,,,,,
Ca$_{2}$In,0.0,eV,,,,,,,
Yb(MnGe)$_{2}$,0.0,eV,,,,,,,
UCoGe,0.0,eV,,,,,,,
Hf$_{3}$P$_{2}$,0.0,eV,,,,,,,
Mg(FeGe)$_{6}$,0.0,eV,,,,,,,
Ba$_{2}$YCu$_{3}$O$_{7}$,0.0,eV,,,,,,,
HoSiRh,0.062300000000000466,eV,,,,,,,
ErNiGe,0.0,eV,,,,,,,
Gd(SiCu)$_{2}$,0.03699999999999992,eV,,,,,,,
Co$_{3}$SnC,0.0,eV,,,,,,,
RhF$_{3}$,0.8625999999999999,eV,,,,,,,
Ce$_{4}$Sb$_{3}$,0.0,eV,,,,,,,
Cu$_{3}$Se$_{2}$,0.10210000000000008,eV,,,,,,,
Pr$_{3}$AlN,0.036799999999999944,eV,,,,,,,
Cr$_{3}$Ge,0.0,eV,,,,,,,
Ho$_{2}$In,0.0,eV,,,,,,,
Sr$_{2}$LuRuO$_{6}$,0.11410000000000009,eV,,,,,,,
Nb$_{3}$B$_{2}$,0.0,eV,,,,,,,
NdFeSi,0.0,eV,,,,,,,
MnGeN$_{2}$,0.21260000000000012,eV,,,,,,,
K$_{2}$Pb$_{2}$O$_{3}$,1.6906999999999996,eV,,,,,,,
Zr$_{3}$In,0.0,eV,,,,,,,
Fe$_{3}$W$_{3}$C,0.0,eV,,,,,,,
ZrNiSb,0.06900000000000084,eV,,,,,,,
LiCoAs,0.0,eV,,,,,,,
CoS$_{2}$,0.0,eV,,,,,,,
Gd(SiIr)$_{2}$,0.010600000000000165,eV,,,,,,,
Dy$_{3}$Co$_{6}$Sn$_{5}$,0.0,eV,,,,,,,
U(MnAl$_{2}$)$_{4}$,0.0,eV,,,,,,,
U$_{2}$SnRu$_{2}$,0.0,eV,,,,,,,
EuPPd,0.006000000000000227,eV,,,,,,,
Gd(CuO$_{2}$)$_{2}$,0.00820000000000043,eV,,,,,,,
In$_{2}$Ni$_{3}$S$_{2}$,0.0,eV,,,,,,,
Ba$_{2}$ScSbO$_{6}$,0.0,eV,,,,,,,
Zn$_{3}$P$_{2}$,0.3144,eV,,,,,,,
CeSiNi,0.0,eV,,,,,,,
Fe$_{3}$Ge,0.0026000000000001577,eV,,,,,,,
EuGe,0.0,eV,,,,,,,
PuSi,0.0,eV,,,,,,,
FeSb$_{2}$,0.0,eV,,,,,,,
Pr$_{2}$InGe$_{2}$,0.0,eV,,,,,,,
PbSeO$_{3}$,2.8838,eV,,,,,,,
CrAs,0.0,eV,,,,,,,
EuHg$_{2}$,0.0,eV,,,,,,,
KTe,0.6627000000000001,eV,,,,,,,
NpTeAs,0.0,eV,,,,,,,
CeFeGe$_{3}$,0.0,eV,,,,,,,
Ca$_{2}$PbAu$_{2}$,0.0,eV,,,,,,,
Mg$_{2}$Pb,0.0,eV,,,,,,,
PbO$_{2}$,0.015500000000000291,eV,,,,,,,
SrCaSn,0.2909999999999999,eV,,,,,,,
Sb$_{2}$PbO$_{6}$,1.9264999999999999,eV,,,,,,,
GdNi$_{2}$B$_{2}$C,0.007600000000000051,eV,,,,,,,
LaIn$_{3}$,0.0,eV,,,,,,,
HfCo$_{2}$Sn,0.0,eV,,,,,,,
In$_{2}$HgSe$_{4}$,0.6337000000000002,eV,,,,,,,
EuAsPt,0.011299999999999422,eV,,,,,,,
ErSiIr,0.0,eV,,,,,,,
Ce$_{3}$Sn,0.0,eV,,,,,,,
EuKNaNbO$_{5}$,0.06790000000000007,eV,,,,,,,
FeSi$_{2}$,0.0,eV,,,,,,,
DyGePt,0.05039999999999978,eV,,,,,,,
Li$_{3}$Sb,0.6960999999999999,eV,,,,,,,
Tl$_{4}$Te$_{3}$Pb,0.11010000000000009,eV,,,,,,,
EuPSe$_{3}$,0.3691,eV,,,,,,,
LaInPd$_{2}$,0.0,eV,,,,,,,
ZrInNi$_{2}$,0.0,eV,,,,,,,
YbIn$_{2}$Au,0.0,eV,,,,,,,
LiSi$_{3}$Pd,0.0,eV,,,,,,,
Dy$_{4}$In(NiGe$_{2}$)$_{2}$,0.0,eV,,,,,,,
Si$_{3}$N$_{4}$,3.3332999999999995,eV,,,,,,,
Tb$_{3}$SnC,0.0,eV,,,,,,,
Pu(SiCu)$_{2}$,0.0,eV,,,,,,,
Ce(Sn$_{3}$Ru$_{2}$)$_{2}$,0.00280000000000058,eV,,,,,,,
CeCoC$_{2}$,0.0,eV,,,,,,,
LiCeSn$_{2}$,0.0,eV,,,,,,,
LaTiGe,0.0,eV,,,,,,,
MnAlGe,0.0,eV,,,,,,,
SrMnSn,0.0,eV,,,,,,,
ZrSe$_{2}$,0.33099999999999996,eV,,,,,,,
La$_{2}$In,0.0,eV,,,,,,,
LaCoGe,0.0,eV,,,,,,,
USnPd,0.0,eV,,,,,,,
Na$_{2}$Gd$_{2}$Ti$_{3}$O$_{10}$,1.7123999999999997,eV,,,,,,,
YbCeSe$_{3}$,0.0,eV,,,,,,,
CeCuGe,0.0,eV,,,,,,,
Fe(SbS$_{2}$)$_{2}$,0.0,eV,,,,,,,
ZnFeSb,0.0,eV,,,,,,,
DyMg,0.03370000000000006,eV,,,,,,,
Eu(ZnGe)$_{2}$,0.0,eV,,,,,,,
PuAs,0.0,eV,,,,,,,
NdCuSn,0.0,eV,,,,,,,
CeDyS$_{3}$,0.0,eV,,,,,,,
U(CoGe)$_{2}$,0.0,eV,,,,,,,
SmCoGe,0.0,eV,,,,,,,
Dy$_{2}$Be$_{2}$GeO$_{7}$,4.4623,eV,,,,,,,
Li$_{2}$CeSb$_{2}$,0.0,eV,,,,,,,
Tb(MnSn)$_{6}$,0.0,eV,,,,,,,
RbHg(NO$_{2}$)$_{3}$,0.0,eV,,,,,,,
LiInTe$_{2}$,1.3847,eV,,,,,,,
Ta$_{3}$PbS$_{6}$,0.0,eV,,,,,,,
Nd(FeGe)$_{2}$,0.0,eV,,,,,,,
Dy$_{3}$In,0.0,eV,,,,,,,
SmInRh,0.0,eV,,,,,,,
Rb$_{2}$P$_{3}$,0.7643999999999997,eV,,,,,,,
InPS$_{4}$,2.3061,eV,,,,,,,
MnVAs,0.0,eV,,,,,,,
Ca$_{2}$InPd$_{2}$,0.0,eV,,,,,,,
Ga$_{2}$FeS$_{4}$,0.3544999999999998,eV,,,,,,,
InPt$_{3}$C,0.0,eV,,,,,,,
Yb(NdS$_{2}$)$_{2}$,1.7644000000000002,eV,,,,,,,
Er$_{2}$ReC$_{2}$,0.0,eV,,,,,,,
GeIr,0.0,eV,,,,,,,
SrBe$_{13}$,0.0,eV,,,,,,,
ZrIn$_{2}$,0.0,eV,,,,,,,
LiIn$_{2}$Pd,0.0,eV,,,,,,,
Eu(POs)$_{2}$,0.0,eV,,,,,,,
USbAs,0.0,eV,,,,,,,
Rb(InAu$_{2}$)$_{2}$,0.0,eV,,,,,,,
PdPbF$_{4}$,1.0993999999999997,eV,,,,,,,
Gd(CuGe)$_{2}$,0.006199999999999761,eV,,,,,,,
Nd$_{3}$PbC,0.013399999999999856,eV,,,,,,,
Cr$_{4}$InCuSe$_{8}$,0.0,eV,,,,,,,
UCoSi,0.0,eV,,,,,,,
Dy(BC)$_{2}$,0.0,eV,,,,,,,
SnPbF$_{4}$,3.3453999999999997,eV,,,,,,,
Gd$_{2}$AlGe$_{2}$,0.0,eV,,,,,,,
GePtSe,0.6596000000000002,eV,,,,,,,
ErGePd$_{2}$,0.0,eV,,,,,,,
PIr$_{2}$,0.0,eV,,,,,,,
Pb(NO$_{3}$)$_{2}$,3.5995,eV,,,,,,,
NpGa$_{3}$,0.0,eV,,,,,,,
Sr$_{2}$CaTlCu$_{2}$O$_{7}$,0.0,eV,,,,,,,
CuTe,0.0,eV,,,,,,,
Pt$_{3}$Pb,0.0,eV,,,,,,,
Sn$_{2}$Ir,0.0,eV,,,,,,,
Gd$_{4}$Sb$_{3}$,0.0,eV,,,,,,,
Zn(InTe$_{2}$)$_{2}$,0.8291,eV,,,,,,,
CeSnPt,0.0,eV,,,,,,,
CeSnIr,0.0,eV,,,,,,,
Nd(NiAs)$_{2}$,0.0,eV,,,,,,,
Gd(MnGe)$_{2}$,0.0035999999999996035,eV,,,,,,,
CaIn$_{4}$Ir,0.0,eV,,,,,,,
Ni$_{4}$N,0.0,eV,,,,,,,
Si$_{5}$Ir$_{3}$,0.9666999999999994,eV,,,,,,,
MnCo$_{2}$Sn,0.0,eV,,,,,,,
Ba$_{2}$CaIrO$_{6}$,0.0,eV,,,,,,,
NdMnGe,0.0,eV,,,,,,,
Sr$_{2}$InPd$_{2}$,0.0,eV,,,,,,,
Dy$_{3}$(CuSn)$_{4}$,0.0,eV,,,,,,,
Dy$_{2}$Sn$_{2}$O$_{7}$,2.7123,eV,,,,,,,
CaIn$_{2}$Ir,0.0,eV,,,,,,,
Ti$_{5}$Sn$_{3}$,0.0,eV,,,,,,,
TmIn,0.0,eV,,,,,,,
Pd$_{3}$Pb,0.0,eV,,,,,,,
PrCo$_{2}$,0.0,eV,,,,,,,
Eu(Sb$_{3}$Ru)$_{4}$,0.0,eV,,,,,,,
Eu(FeP$_{3}$)$_{4}$,0.0,eV,,,,,,,
CoB,0.0,eV,,,,,,,
DyCuSb$_{2}$,0.0,eV,,,,,,,
PuS,0.0,eV,,,,,,,
Mn$_{3}$SnC,0.0,eV,,,,,,,
CrGe,0.0,eV,,,,,,,
CoSe$_{2}$,0.0,eV,,,,,,,
Sb$_{2}$Pt$_{2}$O$_{7}$,0.5643000000000002,eV,,,,,,,
VNi$_{2}$Sn,0.0,eV,,,,,,,
YCuPb,0.0,eV,,,,,,,
GeRh,0.18489999999999984,eV,,,,,,,
Eu(AlGa)$_{2}$,0.0,eV,,,,,,,
Fe$_{2}$W,0.0,eV,,,,,,,
GdTiGe,0.05289999999999928,eV,,,,,,,
Dy$_{2}$InPd$_{2}$,0.0,eV,,,,,,,
Sr(AlPb)$_{2}$,0.0,eV,,,,,,,
EuB$_{6}$,0.6101000000000001,eV,,,,,,,
TbInRh,0.0,eV,,,,,,,
NbCoB$_{2}$,0.0,eV,,,,,,,
PbO,2.1565,eV,,,,,,,
CaHgPb,0.0,eV,,,,,,,
CeAl$_{2}$,0.0,eV,,,,,,,
NdAgPb,0.0,eV,,,,,,,
LaNiBN,0.0,eV,,,,,,,
CeBO$_{3}$,0.0045000000000001705,eV,,,,,,,
Fe$_{3}$Sn,0.0,eV,,,,,,,
Fe$_{4}$P,0.0,eV,,,,,,,
CeZnSn,0.0,eV,,,,,,,
VSn$_{2}$,0.0,eV,,,,,,,
TmGeRu,0.0,eV,,,,,,,
HfSnPt,0.0,eV,,,,,,,
ZrTe$_{3}$,0.0,eV,,,,,,,
Eu(FeAs)$_{2}$,0.0,eV,,,,,,,
ZrFeP,0.0,eV,,,,,,,
GeO$_{2}$,0.9845000000000002,eV,,,,,,,
NpAs,0.0,eV,,,,,,,
TmInNi$_{4}$,0.0,eV,,,,,,,
Ba$_{4}$Y$_{2}$Cu$_{6}$O$_{13}$,0.0,eV,,,,,,,
DyInAg$_{2}$,0.0,eV,,,,,,,
UGa$_{3}$Pd$_{2}$,0.0,eV,,,,,,,
Er$_{2}$Se$_{3}$,0.7923,eV,,,,,,,
FeCo,0.0,eV,,,,,,,
Cu$_{3}$Sb,0.0,eV,,,,,,,
NiSe$_{2}$,0.0,eV,,,,,,,
InAg(PSe$_{3}$)$_{2}$,0.6040999999999999,eV,,,,,,,
PrIn$_{3}$,0.0,eV,,,,,,,
OsS$_{2}$,0.0,eV,,,,,,,
HoCoC,0.0,eV,,,,,,,
La$_{2}$InRh$_{2}$,0.0,eV,,,,,,,
Ce(BC)$_{2}$,0.0,eV,,,,,,,
La$_{3}$In,0.0,eV,,,,,,,
V$_{3}$B$_{2}$,0.0,eV,,,,,,,
LaGe$_{3}$Ir,0.0,eV,,,,,,,
LaIn$_{5}$Ir,0.0,eV,,,,,,,
UGeS,0.0,eV,,,,,,,
NdIn$_{2}$Ir,0.0,eV,,,,,,,
Cs$_{2}$NaMn(CN)$_{6}$,0.03109999999999999,eV,,,,,,,
V$_{5}$Ge$_{3}$,0.0,eV,,,,,,,
U$_{2}$Fe$_{3}$Ge,0.0,eV,,,,,,,
ErTiSi,0.0,eV,,,,,,,
CePd$_{3}$,0.0,eV,,,,,,,
TbIn$_{3}$,0.0,eV,,,,,,,
Dy$_{3}$GaC,0.0,eV,,,,,,,
EuSbPt,0.032999999999999474,eV,,,,,,,
U(FeSi)$_{2}$,0.0,eV,,,,,,,
Co$_{3}$C,0.0,eV,,,,,,,
Sb$_{2}$Ru,0.008100000000000662,eV,,,,,,,
Pr$_{3}$Al,0.0,eV,,,,,,,
InCuO$_{2}$,0.23879999999999946,eV,,,,,,,
NbNiP,0.0,eV,,,,,,,
Ce(CoGe)$_{2}$,0.001100000000000101,eV,,,,,,,
Pu$_{2}$Si$_{4}$Tc$_{3}$,8.999999999996788E-4,eV,,,,,,,
ZrSnIr,0.0,eV,,,,,,,
Ba$_{2}$PrCu$_{3}$O$_{7}$,0.0,eV,,,,,,,
Cr$_{3}$C$_{2}$,0.0,eV,,,,,,,
RbIn$_{5}$S$_{8}$,1.2599999999999998,eV,,,,,,,
PrPb$_{3}$,0.0,eV,,,,,,,
TiCdO$_{3}$,2.4627000000000003,eV,,,,,,,
UIn$_{3}$,0.0,eV,,,,,,,
Ba$_{2}$TlCuO$_{5}$,0.0,eV,,,,,,,
TePb,0.0,eV,,,,,,,
Sr$_{2}$PbO$_{4}$,1.3966000000000003,eV,,,,,,,
NbNiP$_{2}$,0.0,eV,,,,,,,
MnSiNi,0.0,eV,,,,,,,
Rb$_{2}$Te$_{3}$,0.6637,eV,,,,,,,
Nd(SiPt)$_{2}$,0.0,eV,,,,,,,
TiNiSb,0.0,eV,,,,,,,
CeScS$_{3}$,0.0,eV,,,,,,,
DyTiSi,0.0,eV,,,,,,,
Gd(SiNi)$_{2}$,0.03000000000000025,eV,,,,,,,
Ba$_{2}$LaReO$_{6}$,0.0,eV,,,,,,,
Ce$_{2}$InGe$_{2}$,0.0,eV,,,,,,,
YbMg$_{2}$,0.0,eV,,,,,,,
In$_{2}$NiS$_{4}$,0.0,eV,,,,,,,
EuPd$_{3}$S$_{4}$,0.0,eV,,,,,,,
Ni$_{23}$B$_{6}$,0.0,eV,,,,,,,
Tb$_{3}$PbC,0.0,eV,,,,,,,
GdCd$_{2}$,0.0,eV,,,,,,,
GdBPd$_{3}$,0.023800000000000487,eV,,,,,,,
SnO,0.4096000000000002,eV,,,,,,,
NaMnSb,0.0,eV,,,,,,,
SnPt$_{3}$,0.0,eV,,,,,,,
YbIn$_{5}$Co,0.0,eV,,,,,,,
Ce$_{2}$S$_{3}$,0.0,eV,,,,,,,
CeIn$_{5}$Ir,0.0,eV,,,,,,,
Eu(BIr)$_{2}$,0.012600000000000833,eV,,,,,,,
CuTeO$_{3}$,0.0,eV,,,,,,,
Ho$_{3}$TlC,0.0,eV,,,,,,,
TmMgIn,0.0,eV,,,,,,,
CeOs$_{2}$,0.0,eV,,,,,,,
NaNdTiO$_{4}$,2.4465000000000003,eV,,,,,,,
K$_{3}$Cu$_{2}$F$_{7}$,0.0,eV,,,,,,,
V$_{2}$InC,0.0,eV,,,,,,,
Ce$_{3}$In,0.00429999999999886,eV,,,,,,,
TaPbS$_{2}$,0.0,eV,,,,,,,
YZnSn,0.0,eV,,,,,,,
Cs$_{2}$LiCr(CN)$_{6}$,1.8319999999999999,eV,,,,,,,
FeS,0.0,eV,,,,,,,
Pr$_{3}$InN,0.2032999999999996,eV,,,,,,,
BaPbO$_{3}$,0.026599999999999735,eV,,,,,,,
Ce$_{3}$InC,0.0,eV,,,,,,,
TaO$_{2}$,0.0,eV,,,,,,,
Eu$_{4}$As$_{3}$,0.0,eV,,,,,,,
DyIn$_{5}$Rh,0.0,eV,,,,,,,
LiCaPb,0.0,eV,,,,,,,
La$_{3}$InN,0.0,eV,,,,,,,
BaLi$_{4}$,0.0,eV,,,,,,,
Dy(MnGe)$_{2}$,0.0,eV,,,,,,,
Y(GeRu)$_{2}$,0.0,eV,,,,,,,
LaIn$_{2}$Rh,0.0,eV,,,,,,,
Y$_{2}$ReC$_{2}$,0.0,eV,,,,,,,
Ce(NiAs)$_{2}$,0.0,eV,,,,,,,
SmSnPt,0.0,eV,,,,,,,
Ni$_{3}$Ge,0.0,eV,,,,,,,
EuSe,0.05329999999999968,eV,,,,,,,
PrSnRu,0.0,eV,,,,,,,
Ce$_{4}$As$_{3}$,0.0,eV,,,,,,,
Si$_{3}$Rh$_{5}$,0.0,eV,,,,,,,
Cs$_{2}$LiFe(CN)$_{6}$,0.0,eV,,,,,,,
DySnPd$_{2}$,0.0,eV,,,,,,,
HoCuSb$_{2}$,0.0,eV,,,,,,,
Y$_{3}$PbC,0.0,eV,,,,,,,
Cr$_{2}$FeS$_{4}$,0.0,eV,,,,,,,
PrGe,0.0,eV,,,,,,,
Sr$_{2}$UO$_{4}$,0.0,eV,,,,,,,
Mo$_{3}$Se$_{4}$,0.0,eV,,,,,,,
Nd$_{3}$InN,0.20389999999999997,eV,,,,,,,
Ti$_{3}$SnC$_{2}$,0.0,eV,,,,,,,
SrIn$_{2}$Pd,0.0,eV,,,,,,,
Nd$_{2}$Cu$_{2}$O$_{5}$,0.0,eV,,,,,,,
Li$_{2}$InPt,0.0,eV,,,,,,,
CaIn$_{2}$Pt,0.0,eV,,,,,,,
Er$_{3}$TlC,0.0,eV,,,,,,,
Li$_{2}$InPd,0.0,eV,,,,,,,
CuAu$_{3}$,0.0,eV,,,,,,,
Ti$_{3}$Sn,0.0,eV,,,,,,,
Pd$_{3}$PbC,0.0,eV,,,,,,,
BaIn$_{2}$Pt,0.0,eV,,,,,,,
La(GePd)$_{2}$,0.0,eV,,,,,,,
Sc$_{3}$PbC,0.0,eV,,,,,,,
U$_{2}$FeS$_{5}$,5.000000000006111E-4,eV,,,,,,,
Dy$_{3}$Mn$_{3}$Ga$_{2}$Si,0.0,eV,,,,,,,
UAs,0.0,eV,,,,,,,
Zr$_{2}$Fe$_{3}$Ge,0.012800000000000367,eV,,,,,,,
Tb(FeP$_{3}$)$_{4}$,0.0,eV,,,,,,,
Te$_{4}$Pt$_{3}$,0.007299999999999862,eV,,,,,,,
RbPbF$_{3}$,3.0444999999999998,eV,,,,,,,
NdGeRh,0.0,eV,,,,,,,
DyAgGe,0.0,eV,,,,,,,
U(GeIr)$_{2}$,0.0,eV,,,,,,,
CrP,0.0,eV,,,,,,,
GdMg$_{2}$,0.0,eV,,,,,,,
Hf$_{3}$Si$_{2}$,0.0,eV,,,,,,,
UFe$_{2}$,0.012299999999999756,eV,,,,,,,
EuInPt,0.025100000000000122,eV,,,,,,,
Tb$_{2}$InPd$_{2}$,0.0,eV,,,,,,,
U(FeP$_{3}$)$_{4}$,0.0,eV,,,,,,,
PrSnPd,0.0,eV,,,,,,,
CeGe$_{2}$,0.0,eV,,,,,,,
La(GePt)$_{2}$,0.0,eV,,,,,,,
Mn$_{3}$InC,0.0,eV,,,,,,,
GdSbPd,0.0,eV,,,,,,,
U$_{4}$S$_{3}$,0.0,eV,,,,,,,
EuNi$_{2}$B$_{2}$C,0.021600000000000286,eV,,,,,,,
SiP$_{2}$,0.0,eV,,,,,,,
TaMnP,0.0,eV,,,,,,,
ScInCu$_{2}$,0.0,eV,,,,,,,
CaIn$_{2}$,0.0,eV,,,,,,,
YSiRu,0.0,eV,,,,,,,
Nd(GePt)$_{2}$,0.0,eV,,,,,,,
Eu$_{2}$SO$_{2}$,0.0,eV,,,,,,,
HoGeIr,0.0,eV,,,,,,,
EuRh$_{3}$C,0.008300000000000196,eV,,,,,,,
LaNiGe$_{2}$,0.0,eV,,,,,,,
Tb(GeRu)$_{2}$,0.0,eV,,,,,,,
Ti$_{5}$Si$_{3}$,0.0,eV,,,,,,,
La(NiSn)$_{2}$,0.0,eV,,,,,,,
ScNiB$_{4}$,0.0,eV,,,,,,,
Dy(GeRu)$_{2}$,0.0,eV,,,,,,,
In$_{6}$Ga$_{2}$PtO$_{8}$,0.5671999999999997,eV,,,,,,,
PuPd$_{3}$,0.0,eV,,,,,,,
Fe$_{2}$GeS$_{4}$,0.40439999999999987,eV,,,,,,,
Ce(MnGe)$_{2}$,0.0,eV,,,,,,,
CePt$_{2}$,0.0,eV,,,,,,,
InNi$_{2}$,0.0,eV,,,,,,,
SrPb,0.0,eV,,,,,,,
CaMnSi,0.0,eV,,,,,,,
KLaGeSe$_{4}$,1.6108999999999998,eV,,,,,,,
UPb,0.0,eV,,,,,,,
K$_{2}$Pb(SO$_{4}$)$_{2}$,4.436299999999999,eV,,,,,,,
U(SiPt)$_{2}$,0.0,eV,,,,,,,
Yb$_{2}$AlB$_{6}$,0.0,eV,,,,,,,
UPdSe$_{3}$,0.007100000000000328,eV,,,,,,,
Hf$_{5}$Sn$_{3}$,0.0,eV,,,,,,,
YbLaS$_{3}$,0.0,eV,,,,,,,
U$_{6}$Fe,0.0,eV,,,,,,,
LaAl$_{4}$,0.0,eV,,,,,,,
In$_{2}$FeS$_{4}$,0.040899999999999714,eV,,,,,,,
Y(FeGe)$_{2}$,0.0,eV,,,,,,,
CeSi,0.0,eV,,,,,,,
CeCoGe$_{3}$,0.0,eV,,,,,,,
FeGe$_{2}$,0.0,eV,,,,,,,
Sr(MnGe)$_{2}$,0.0,eV,,,,,,,
CeNiSn,0.0,eV,,,,,,,
NdSb$_{2}$Pd,0.0,eV,,,,,,,
SrIn$_{4}$Pt,0.0,eV,,,,,,,
EuB$_{2}$Rh$_{3}$,0.012900000000000134,eV,,,,,,,
Ca$_{3}$PbN,0.0,eV,,,,,,,
Sr$_{2}$Cu$_{2}$O$_{5}$,0.0,eV,,,,,,,
Np(CoSi)$_{2}$,0.0,eV,,,,,,,
CaMnSb$_{2}$,0.028100000000000236,eV,,,,,,,
U(GeRh)$_{2}$,0.0011999999999998678,eV,,,,,,,
Np(MnGe)$_{2}$,0.001000000000000334,eV,,,,,,,
K(InAu$_{2}$)$_{2}$,0.0,eV,,,,,,,
Pr$_{3}$InO,0.0,eV,,,,,,,
Ce$_{3}$Ni$_{2}$B$_{2}$N$_{3}$,0.0,eV,,,,,,,
Ca$_{2}$PbO$_{4}$,1.4819999999999998,eV,,,,,,,
Mn$_{2}$SnS$_{4}$,0.008199999999999541,eV,,,,,,,
YN,0.14720000000000066,eV,,,,,,,
CeSb,0.0,eV,,,,,,,
Fe$_{2}$CuGe$_{2}$,0.0,eV,,,,,,,
CeP,0.01249999999999929,eV,,,,,,,
TbCoGe,0.0,eV,,,,,,,
PrInCu$_{2}$,0.0,eV,,,,,,,
GdO$_{2}$,0.0,eV,,,,,,,
Pu$_{2}$Mg,0.0,eV,,,,,,,
ErGeIr,0.0,eV,,,,,,,
TbMnGe,0.0,eV,,,,,,,
DyMnGe,0.0,eV,,,,,,,
TbPb$_{3}$,0.0,eV,,,,,,,
TmNiGe,0.0,eV,,,,,,,
CeAlPd,0.0,eV,,,,,,,
DyGe$_{3}$,0.0,eV,,,,,,,
Er$_{2}$Cu$_{2}$O$_{5}$,0.31300000000000017,eV,,,,,,,
SrPb$_{3}$,0.0,eV,,,,,,,
SrGePt,0.0,eV,,,,,,,
PdSe,0.0,eV,,,,,,,
SrCaPb,0.27680000000000016,eV,,,,,,,
Ni$_{2}$P,0.0,eV,,,,,,,
EuGa$_{2}$,0.0,eV,,,,,,,
Ce$_{2}$NiB$_{10}$,0.0,eV,,,,,,,
TbN,0.015600000000000058,eV,,,,,,,
KPb$_{2}$,0.0,eV,,,,,,,
MnGaCo$_{2}$,0.0,eV,,,,,,,
PuPb$_{3}$,0.0,eV,,,,,,,
In$_{2}$CoS$_{4}$,0.0,eV,,,,,,,
TaGaNi$_{2}$,0.0,eV,,,,,,,
KCeGeSe$_{4}$,0.10860000000000003,eV,,,,,,,
TmIn$_{3}$,0.0,eV,,,,,,,
U$_{2}$Co$_{3}$Si$_{5}$,0.0,eV,,,,,,,
RhN$_{3}$,0.0,eV,,,,,,,
YbNiB$_{4}$,0.0,eV,,,,,,,
Sc$_{3}$P$_{2}$,0.0,eV,,,,,,,
Ba(InTe$_{2}$)$_{2}$,0.9628000000000001,eV,,,,,,,
Cd$_{3}$P$_{2}$,0.0,eV,,,,,,,
Mn$_{3}$RhN,0.0,eV,,,,,,,
CeNi,0.0,eV,,,,,,,
TbC$_{2}$,0.0,eV,,,,,,,
PbSO$_{3}$,3.2196,eV,,,,,,,
USiPd,0.0,eV,,,,,,,
GdSi$_{2}$,0.013799999999999812,eV,,,,,,,
NdGeRu,0.0,eV,,,,,,,
Gd(Al$_{2}$Cr)$_{4}$,0.005600000000000271,eV,,,,,,,
NdIn$_{3}$,0.0,eV,,,,,,,
DyAgSn,0.0,eV,,,,,,,
Na$_{3}$(GePt)$_{4}$,0.0,eV,,,,,,,
HoAg$_{2}$,0.0,eV,,,,,,,
PuGa$_{2}$,0.0,eV,,,,,,,
LaGa$_{3}$Pd$_{2}$,0.0,eV,,,,,,,
TbCoSi,0.0,eV,,,,,,,
ZrNiP,0.006999999999999673,eV,,,,,,,
Tm$_{2}$InPd$_{2}$,0.0,eV,,,,,,,
Yb$_{3}$GaC,0.0,eV,,,,,,,
LaInNi$_{2}$,0.0,eV,,,,,,,
RhF$_{3}$,0.5624,eV,,,,,,,
Cu$_{3}$(AsO$_{4}$)$_{2}$,0.0,eV,,,,,,,
ScAl$_{3}$,0.0,eV,,,,,,,
InFeCo$_{2}$,0.0,eV,,,,,,,
PbSe,0.0,eV,,,,,,,
InPd,0.0,eV,,,,,,,
URhS$_{3}$,0.0,eV,,,,,,,
La(GePt)$_{2}$,0.021399999999999864,eV,,,,,,,
CaIn$_{4}$Rh,0.0,eV,,,,,,,
Pr(FeGe)$_{2}$,0.0,eV,,,,,,,
Sm$_{2}$InGe$_{2}$,0.0,eV,,,,,,,
YbIn$_{2}$Ni,0.0,eV,,,,,,,
Sm(GeRu)$_{2}$,0.0,eV,,,,,,,
Pu(SiOs)$_{2}$,0.0,eV,,,,,,,
U$_{3}$TiSb$_{5}$,0.0,eV,,,,,,,
SrCuSeF,1.1989,eV,,,,,,,
Eu(SiAu)$_{2}$,0.0,eV,,,,,,,
Nb$_{3}$Au$_{2}$,0.0,eV,,,,,,,
GdCoB$_{4}$,0.025599999999999845,eV,,,,,,,
FeSn$_{2}$(CN)$_{6}$,3.5469999999999997,eV,,,,,,,
TmInRh,0.0,eV,,,,,,,
Ti$_{3}$InN,0.0,eV,,,,,,,
EuZnSi,0.008399999999999963,eV,,,,,,,
Mn$_{2}$VGa,0.0,eV,,,,,,,
BaPPt,0.0,eV,,,,,,,
CoGe,0.009699999999999598,eV,,,,,,,
ThSi,0.0,eV,,,,,,,
FePb$_{2}$(CN)$_{6}$,3.4058,eV,,,,,,,
Ho$_{4}$Sb$_{3}$,0.0,eV,,,,,,,
Gd(SiRh)$_{2}$,0.0,eV,,,,,,,
YbLiPb,0.0,eV,,,,,,,
TlHg(NO$_{2}$)$_{3}$,0.0,eV,,,,,,,
Cr$_{3}$RhN,0.0,eV,,,,,,,
CePt,0.0,eV,,,,,,,
Ba$_{2}$Pb,0.031400000000000095,eV,,,,,,,
NbSiIr,0.0,eV,,,,,,,
YMnSi,0.0,eV,,,,,,,
TeO$_{2}$,2.2279000000000004,eV,,,,,,,
UGa$_{5}$Ni,0.0,eV,,,,,,,
GdCo$_{3}$B$_{2}$,0.028999999999999915,eV,,,,,,,
EuMg,0.04520000000000035,eV,,,,,,,
FeGe,0.09649999999999981,eV,,,,,,,
Mn$_{7}$C$_{3}$,0.0,eV,,,,,,,
EuIn$_{2}$Pd,0.007000000000000561,eV,,,,,,,
Na$_{2}$FeCu(CN)$_{6}$,0.0,eV,,,,,,,
HfIr$_{3}$,0.0,eV,,,,,,,
BPPbO$_{5}$,4.259,eV,,,,,,,
Yb$_{2}$InPd$_{2}$,0.0,eV,,,,,,,
SiAs$_{2}$,0.0,eV,,,,,,,
U$_{2}$AlCo$_{2}$,0.0,eV,,,,,,,
Pr$_{3}$Te$_{4}$,0.0,eV,,,,,,,
PrMnGe,0.0,eV,,,,,,,
ErNiSb,0.2741000000000007,eV,,,,,,,
PbS,0.4607999999999999,eV,,,,,,,
Gd(SiPt)$_{2}$,0.0027999999999996916,eV,,,,,,,
CeIn$_{2}$Ir,0.0,eV,,,,,,,
EuSi,0.0,eV,,,,,,,
Sn$_{4}$Pd,0.0,eV,,,,,,,
BaPbO$_{3}$,0.0,eV,,,,,,,
Th(MnGe)$_{2}$,0.0,eV,,,,,,,
Na$_{2}$SO$_{3}$,4.908899999999999,eV,,,,,,,
Cs$_{2}$PbO$_{3}$,1.3724,eV,,,,,,,
MnCoGe,0.005700000000000038,eV,,,,,,,
Gd(SiAg)$_{2}$,0.0129999999999999,eV,,,,,,,
La$_{2}$InGe$_{2}$,0.0,eV,,,,,,,
TiZn$_{3}$,0.0,eV,,,,,,,
NdGe$_{2}$,0.0,eV,,,,,,,
HoInPt,0.0,eV,,,,,,,
Tm$_{3}$InC,0.0,eV,,,,,,,
Li$_{3}$In$_{2}$,0.08809999999999985,eV,,,,,,,
Y$_{2}$In,0.0,eV,,,,,,,
Nd$_{2}$In,0.0,eV,,,,,,,
PtPb$_{4}$,0.0,eV,,,,,,,
LiSn$_{4}$Ru,0.0,eV,,,,,,,
NpSi$_{2}$,0.0,eV,,,,,,,