formula,Property Band Gap,Property Band Gap units,Property Band gap,Property Band gap units,Temperature (Property Band gap),Temperature (Property Band gap) units,Property Color,Temperature (Property Color),Temperature (Property Color) units
PrRh$_{3}$C,0.0,eV,,,,,,,
VSi$_{2}$,0.0,eV,,,,,,,
ScRh$_{3}$C,0.0,eV,,,,,,,
TmRh$_{3}$C,0.0,eV,,,,,,,
YbRh$_{3}$C,0.07040000000000024,eV,,,,,,,
Sm$_{3}$SnC,0,eV,,,,,,,
Nb$_{5}$Ga$_{13}$,0.0,eV,,,,,,,
ThC$_{2}$,0.0,eV,,,,,,,
Ti$_{2}$C,0.0,eV,,,,,,,
PdO,0.0,eV,,,,,,,
Pd$_{2}$O,0.0,eV,,,,,,,
CaCd,0.0,eV,,,,,,,
Ba$_{2}$PrSbO$_{6}$,3.684,eV,,,,,,,
ThTaN$_{3}$,0.07850000000000001,eV,,,,,,,
Sm$_{2}$O$_{3}$,3.9244,eV,,,,,,,
Ti$_{4}$O$_{5}$,0.0,eV,,,,,,,
Zr$_{2}$O,0.0,eV,,,,,,,
Ba$_{3}$N,0.0,eV,,,,,,,
SmPPt,0.0,eV,,,,,,,
TiPRu,0.0,eV,,,,,,,
RbSi,1.3499999999999999,eV,,,,,,,
Pa,0.0,eV,,,,,,,
Si$_{3}$Pt$_{2}$,0.0,eV,,,,,,,
Mg$_{2}$SiCu$_{3}$,0.0,eV,,,,,,,
TaCu$_{3}$S$_{4}$,1.9231000000000003,eV,,,,,,,
SrCuSb,0.0,eV,,,,,,,
SmNi$_{5}$,0.04010000000000069,eV,,,,,,,
Dy,0.0,eV,,,,,,,
Er,0.0,eV,,,,,,,
Fe(RhS$_{2}$)$_{2}$,0.0,eV,,,,,,,
TiFeSb,0.0,eV,,,,,,,
VFeSb,0.0,eV,,,,,,,
GeSe,0.05830000000000002,eV,,,,,,,
KB$_{6}$,0.0,eV,,,,,,,
MgSe,1.7649000000000004,eV,,,,,,,
FeTe,0.0,eV,,,,,,,
Cd$_{3}$As$_{2}$,0.14979999999999993,eV,,,,,,,
KHgSb,9.999999999976694E-5,eV,,,,,,,
HgS,0.0,eV,,,,,,,
Ho,0.0,eV,,,,,,,
YbCsK$_{2}$(PO$_{4}$)$_{2}$,0.0,eV,,,,,,,
BaSbAu,0.0,eV,,,,,,,
B$_{2}$Ru,0.0,eV,,,,,,,
Dy$_{4}$(SiS$_{4}$)$_{3}$,2.3623000000000003,eV,,,,,,,
CeAsO$_{4}$,0.14920000000000044,eV,,,,,,,
K$_{2}$Sn(AsS$_{3}$)$_{2}$,1.0089000000000001,eV,,,,,,,
RbCeSe$_{2}$,0.09830000000000005,eV,,,,,,,
RbPrSe$_{2}$,1.9029,eV,,,,,,,
RbNdSe$_{2}$,1.8958,eV,,,,,,,
CaCd$_{2}$,0.0,eV,,,,,,,
RbSmSe$_{2}$,1.899,eV,,,,,,,
RbGdSe$_{2}$,1.3089000000000002,eV,,,,,,,
TbRbSe$_{2}$,1.9336000000000002,eV,,,,,,,
RbHoSe$_{2}$,1.9620000000000002,eV,,,,,,,
RbErSe$_{2}$,1.9815999999999998,eV,,,,,,,
RbLuSe$_{2}$,2.0335,eV,,,,,,,
Yb$_{2}$Ge$_{6}$Pd,0.0,eV,,,,,,,
ErBO$_{3}$,5.131399999999999,eV,,,,,,,
DyBO$_{3}$,5.0107,eV,,,,,,,
TaTlS$_{3}$,0.5987999999999998,eV,,,,,,,
HgSeO$_{4}$,0.8439999999999999,eV,,,,,,,
CaSiNi$_{2}$,0.0,eV,,,,,,,
HgSeO$_{3}$,2.2784,eV,,,,,,,
RbAs,0.5850999999999997,eV,,,,,,,
NaYPO$_{4}$F,5.4899000000000004,eV,,,,,,,
AgSnF$_{6}$,0.24960000000000004,eV,,,,,,,
V$_{3}$S$_{4}$,0.0,eV,,,,,,,
TiAgF$_{6}$,0.0,eV,,,,,,,
NaSr$_{4}$(BN$_{2}$)$_{3}$,1.9682,eV,,,,,,,
SrLiBO$_{3}$,4.3664,eV,,,,,,,
NdAgAs$_{2}$,0.0,eV,,,,,,,
VIr$_{3}$,0.0,eV,,,,,,,
RbC,3.5275,eV,,,,,,,
ZnCu$_{2}$GeSe$_{4}$,0.0,eV,,,,,,,
NpB$_{2}$,0.0,eV,,,,,,,
RbNd$_{2}$CuS$_{4}$,0.9387999999999996,eV,,,,,,,
RbSm$_{2}$CuS$_{4}$,0.9672000000000001,eV,,,,,,,
Na$_{2}$MgInF$_{7}$,4.9737,eV,,,,,,,
YbNa(PS$_{3}$)$_{2}$,1.696,eV,,,,,,,
ZrB$_{12}$,0.0,eV,,,,,,,
Te$_{2}$Ir,0.0,eV,,,,,,,
NiAsSe,0.0,eV,,,,,,,
NiSbSe,0.0,eV,,,,,,,
AsPdS,0.0,eV,,,,,,,
AsPdSe,0.0,eV,,,,,,,
UOs$_{2}$,0.0,eV,,,,,,,
SbTePd,0.0,eV,,,,,,,
SiO$_{2}$,5.5318,eV,,,,,,,
La(BC)$_{2}$,0.0,eV,,,,,,,
Pr(BC)$_{2}$,0.0,eV,,,,,,,
Tb(BC)$_{2}$,0.0,eV,,,,,,,
Er(BC)$_{2}$,0.0,eV,,,,,,,
Tm(BC)$_{2}$,0.0,eV,,,,,,,
Lu(BC)$_{2}$,0,eV,,,,,,,
CeNi$_{2}$B$_{2}$C,0.0,eV,,,,,,,
Hg,0.0,eV,,,,,,,
Ho$_{2}$Ge$_{6}$Pd,0.0,eV,,,,,,,
Yb$_{5}$(LiGe)$_{4}$,0.0,eV,,,,,,,
Np(GePd)$_{2}$,0.0,eV,,,,,,,
PrPPd,0.0,eV,,,,,,,
SmPPd,0.0,eV,,,,,,,
S,0.0,eV,,,,,,,
SrS,2.497,eV,,,,,,,
Zr$_{5}$ZnSb$_{3}$,0.0,eV,,,,,,,
AlAu,0.0,eV,,,,,,,
HfAlAu$_{2}$,0.0,eV,,,,,,,
ScAlAu$_{2}$,0.0,eV,,,,,,,
Ca$_{3}$Al$_{7}$Cu$_{2}$,0.05590000000000028,eV,,,,,,,
Ca(Al$_{2}$Cu)$_{4}$,0.0,eV,,,,,,,
Ca(MnAl$_{2}$)$_{4}$,0.0,eV,,,,,,,
CeAl,0.0,eV,,,,,,,
YbGa$_{4}$,0.0,eV,,,,,,,
Ce$_{3}$AlN,0.0,eV,,,,,,,
AlCrCo$_{2}$,0.0,eV,,,,,,,
AlFeCo$_{2}$,0.0,eV,,,,,,,
AlCrNi$_{2}$,0.0,eV,,,,,,,
Al$_{3}$Cu$_{2}$,0.0,eV,,,,,,,
HfAlCu$_{2}$,0.0,eV,,,,,,,
La$_{3}$Al,0.0,eV,,,,,,,
TiIr$_{3}$,0.0,eV,,,,,,,
LiAl$_{3}$,0.0,eV,,,,,,,
MnAlPd$_{2}$,0.0,eV,,,,,,,
MnAlPt,0.0,eV,,,,,,,
MnAlPt$_{2}$,0.0,eV,,,,,,,
MnAlRh$_{2}$,0.0,eV,,,,,,,
Mn$_{2}$AlV,0.0,eV,,,,,,,
Y(MnAl$_{2}$)$_{4}$,0.0,eV,,,,,,,
PrAl$_{2}$Ni$_{3}$,0.0,eV,,,,,,,
ScAlNi$_{2}$,0.0,eV,,,,,,,
AlVNi$_{2}$,0.0,eV,,,,,,,
U$_{2}$Al$_{3}$Os,0.0,eV,,,,,,,
Al$_{3}$Pd$_{2}$,0.0,eV,,,,,,,
PrAl,0.0,eV,,,,,,,
AlPt,0.0,eV,,,,,,,
Al$_{3}$Pt$_{2}$,0.0,eV,,,,,,,
ZrAlPt$_{2}$,0.0,eV,,,,,,,
PuAl$_{3}$,0.0,eV,,,,,,,
AlRe,0.0,eV,,,,,,,
AlRe$_{2}$,0.0,eV,,,,,,,
SmAu$_{6}$,0.0,eV,,,,,,,
Al$_{2}$Ru,0.08700000000000152,eV,,,,,,,
Sc$_{2}$Al$_{3}$Ru,0.0,eV,,,,,,,
BaPr$_{2}$FeS$_{5}$,0.0,eV,,,,,,,
GeO$_{2}$,1.5228000000000002,eV,,,,,,,
K$_{3}$Cu$_{5}$O$_{4}$,1.5555999999999999,eV,,,,,,,
Rb$_{2}$PdC$_{2}$,1.5802,eV,,,,,,,
Rb$_{2}$PtC$_{2}$,1.1361999999999999,eV,,,,,,,
HoHg,0.0,eV,,,,,,,
Mg$_{2}$Co$_{12}$P$_{7}$,0.0,eV,,,,,,,
Ca$_{2}$Co$_{12}$P$_{7}$,0.0,eV,,,,,,,
Mg(Co$_{3}$P$_{2}$)$_{2}$,0.0,eV,,,,,,,
Pr$_{2}$Se$_{2}$O,2.0603,eV,,,,,,,
SrC$_{2}$(SN)$_{2}$,3.7833,eV,,,,,,,
BaC$_{2}$(SN)$_{2}$,3.9015,eV,,,,,,,
ThGe,0.0,eV,,,,,,,
TbSF,1.2587000000000002,eV,,,,,,,
HoSF,1.2995999999999999,eV,,,,,,,
ErSF,1.3243999999999998,eV,,,,,,,
Nd$_{2}$TeS$_{2}$,1.5852000000000004,eV,,,,,,,
NaErPO$_{4}$F,5.5176,eV,,,,,,,
KNaLaNbO$_{5}$,3.6387000000000005,eV,,,,,,,
SiO$_{2}$,5.297000000000001,eV,,,,,,,
Sr$_{2}$Cu(PO$_{4}$)$_{2}$,0.22160000000000002,eV,,,,,,,
Cu$_{2}$HgGeS$_{4}$,0.0041999999999999815,eV,,,,,,,
Sc$_{2}$CdS$_{4}$,0.9581,eV,,,,,,,
Sn(HgSe$_{2}$)$_{2}$,0.2722,eV,,,,,,,
LaAsRh,0.0,eV,,,,,,,
CeS,0.0036000000000004917,eV,,,,,,,
Tb$_{2}$Ti$_{2}$S$_{2}$O$_{5}$,0.7039,eV,,,,,,,
La$_{5}$Si$_{3}$,0.0,eV,,,,,,,
Ag$_{2}$SnHgSe$_{4}$,8.000000000001339E-4,eV,,,,,,,
CeB$_{2}$Ir$_{2}$C,0.0,eV,,,,,,,
DyAgSb$_{2}$,0.0,eV,,,,,,,
Tb$_{2}$Cu(GeO$_{3}$)$_{4}$,0.8603000000000001,eV,,,,,,,
CdCu$_{2}$GeSe$_{4}$,0.001200000000000312,eV,,,,,,,
CdCN$_{2}$,2.3070000000000004,eV,,,,,,,
TaB,0.0,eV,,,,,,,
LiErO$_{2}$,4.1087,eV,,,,,,,
LiErO$_{2}$,4.171,eV,,,,,,,
K$_{2}$Ga$_{3}$CuSe$_{6}$,1.0807000000000002,eV,,,,,,,
Yb$_{4}$As$_{3}$,0.0,eV,,,,,,,
YbSbPd,0.0,eV,,,,,,,
ErVB$_{4}$,0.0,eV,,,,,,,
RbCu$_{3}$S$_{2}$,0.4685000000000006,eV,,,,,,,
YbNaSe$_{2}$,0.0,eV,,,,,,,
YbKSe$_{2}$,0.0,eV,,,,,,,
NiGe,0.0,eV,,,,,,,
Al$_{4}$CN$_{3}$O,0.15329999999999977,eV,,,,,,,
YCuAs$_{2}$,0.0,eV,,,,,,,
DyCuAs$_{2}$,0.0,eV,,,,,,,
ErCuAs$_{2}$,0.0,eV,,,,,,,
TmCuAs$_{2}$,0.0,eV,,,,,,,
Yb(MgSb)$_{2}$,0.6840000000000002,eV,,,,,,,
Yb$_{2}$Ge$_{2}$Ir,0.0,eV,,,,,,,
LuGeIr,0.0,eV,,,,,,,
Mg,0.0,eV,,,,,,,
YbC$_{2}$,1.0157,eV,,,,,,,
CaB$_{4}$O$_{7}$,6.3172000000000015,eV,,,,,,,
BaPS$_{3}$,3.1048000000000004,eV,,,,,,,
CaPSe$_{3}$,2.1236,eV,,,,,,,
BaPSe$_{3}$,2.1557000000000004,eV,,,,,,,
CaC$_{2}$(SN)$_{2}$,3.3977,eV,,,,,,,
TmAs,0.0,eV,,,,,,,
KNdTe$_{4}$,0.1499000000000006,eV,,,,,,,
RbNdTe$_{4}$,0.16490000000000027,eV,,,,,,,
Sr(BS$_{2}$)$_{2}$,2.9754,eV,,,,,,,
K$_{2}$TeOF$_{4}$,4.8881,eV,,,,,,,
RbCd(NO$_{2}$)$_{3}$,2.352,eV,,,,,,,
KCd(NO$_{2}$)$_{3}$,2.305,eV,,,,,,,
TlCd(NO$_{2}$)$_{3}$,2.1602,eV,,,,,,,
GaCuO$_{2}$,0.7812999999999999,eV,,,,,,,
LuN,0.23649999999999993,eV,,,,,,,
GaAgO$_{2}$,0.5832999999999999,eV,,,,,,,
GaAuO$_{2}$,0.0,eV,,,,,,,
ScAgO$_{2}$,2.1151,eV,,,,,,,
ScAuO$_{2}$,1.7632999999999996,eV,,,,,,,
ZnP$_{2}$,1.4617000000000004,eV,,,,,,,
Rb$_{3}$Hg$_{20}$,0.0,eV,,,,,,,
Cs$_{3}$Hg$_{20}$,0.0,eV,,,,,,,
K$_{3}$Hg$_{11}$,0.0,eV,,,,,,,
Y(Al$_{2}$Cu)$_{4}$,0.0,eV,,,,,,,
LuSi$_{2}$,0.02259999999999973,eV,,,,,,,
CeAl$_{7}$Au$_{3}$,0.0,eV,,,,,,,
TbAl$_{7}$Au$_{3}$,0.0,eV,,,,,,,
PrAl$_{7}$Au$_{3}$,0.0,eV,,,,,,,
Lu(Al$_{2}$Fe)$_{4}$,0.0,eV,,,,,,,
Zr$_{6}$Al$_{2}$Fe,0.0,eV,,,,,,,
LaMg,0.11739999999999995,eV,,,,,,,
EuZnSn,0.0,eV,,,,,,,
BaO$_{2}$,2.2283999999999997,eV,,,,,,,
NaSn,0.34289999999999976,eV,,,,,,,
RbSn,0.7438000000000002,eV,,,,,,,
CsSn,0.7471999999999999,eV,,,,,,,
Sr$_{2}$Si,0.3466999999999998,eV,,,,,,,
YbAgSn,0.0,eV,,,,,,,
Th$_{7}$Rh$_{3}$,0.0,eV,,,,,,,
Ti$_{3}$In$_{3}$Rh$_{2}$,0.0,eV,,,,,,,
BaIn$_{2}$Rh,0.0,eV,,,,,,,
TaB$_{2}$,0.0,eV,,,,,,,
YbMgAu,0.0,eV,,,,,,,
CeSnAu,0.0,eV,,,,,,,
CeCdAu,0.0,eV,,,,,,,
EuCdAu,0.03569999999999984,eV,,,,,,,
YbCdAu,0.0,eV,,,,,,,
La$_{2}$MgCu$_{2}$,0.0,eV,,,,,,,
Sr$_{5}$Al$_{9}$,0.01100000000000012,eV,,,,,,,
EuCdPd,0.021500000000000075,eV,,,,,,,
NdMgPt,0.0,eV,,,,,,,
YbMgPd,0.0,eV,,,,,,,
Ne,11.803,eV,,,,,,,
YbIn$_{5}$Rh,0.0,eV,,,,,,,
LuInRh,0.0,eV,,,,,,,
YbInRh,0.0,eV,,,,,,,
HoInRh,0.026099999999999568,eV,,,,,,,
PaAs$_{2}$,0.0,eV,,,,,,,
Ac$_{2}$O$_{3}$,3.5225999999999997,eV,,,,,,,
SrP$_{3}$,0.0138000000000007,eV,,,,,,,
Mn$_{5}$Si$_{3}$,0.0,eV,,,,,,,
YbAl$_{3}$(BO$_{3}$)$_{4}$,0.02200000000000024,eV,,,,,,,
Tb(BO$_{2}$)$_{3}$,4.9842,eV,,,,,,,
TiTeAs,0.0,eV,,,,,,,
KCuPdSe$_{5}$,1.0179,eV,,,,,,,
RbCuPdSe$_{5}$,0.9872000000000001,eV,,,,,,,
CsYCdSe$_{3}$,2.0854999999999997,eV,,,,,,,
CsPrCdSe$_{3}$,1.9664000000000001,eV,,,,,,,
CeCo$_{2}$,0.0,eV,,,,,,,
TbCsCdSe$_{3}$,2.0647,eV,,,,,,,
CsDyCdSe$_{3}$,2.4189999999999996,eV,,,,,,,
CsYHgSe$_{3}$,1.3946,eV,,,,,,,
CsLaHgSe$_{3}$,1.4529999999999998,eV,,,,,,,
BW$_{2}$,0.0,eV,,,,,,,
K$_{2}$Hg$_{3}$(GeS$_{4}$)$_{2}$,1.5410999999999997,eV,,,,,,,
KPrTe$_{4}$,0.16909999999999936,eV,,,,,,,
VP,0.0,eV,,,,,,,
Ho$_{2}$Sb$_{5}$,0.0,eV,,,,,,,
SrSi$_{4}$Cu$_{9}$,0.0,eV,,,,,,,
BaSi$_{4}$Cu$_{9}$,0.0,eV,,,,,,,
SrCu$_{9}$Ge$_{4}$,0,eV,,,,,,,
BaCu$_{9}$Ge$_{4}$,0.0,eV,,,,,,,
Na$_{5}$CuSO$_{2}$,1.5228,eV,,,,,,,
PtSe$_{2}$,0.8273999999999999,eV,,,,,,,
NaPrTe$_{2}$,1.0596999999999999,eV,,,,,,,
SiSbPt,0.2099000000000002,eV,,,,,,,
NdMgGa,0.0,eV,,,,,,,
TmMgGa,0.0,eV,,,,,,,
SmMgGa,0.0,eV,,,,,,,
Sr$_{2}$Mg$_{17}$,0.0,eV,,,,,,,
SmSbIr,0.0,eV,,,,,,,
Na$_{2}$MgPO$_{4}$F,4.736000000000001,eV,,,,,,,
BaZnCO$_{3}$F$_{2}$,4.7744,eV,,,,,,,
Ca(PIr)$_{2}$,0.49429999999999996,eV,,,,,,,
Ba(PIr)$_{2}$,0.0,eV,,,,,,,
KCeSiS$_{4}$,0.002500000000000391,eV,,,,,,,
LiRhF$_{6}$,0.0,eV,,,,,,,
LiIrF$_{6}$,0.0,eV,,,,,,,
K$_{2}$IrF$_{6}$,0.0,eV,,,,,,,
LiZnPS$_{4}$,2.7311999999999994,eV,,,,,,,
Ca$_{3}$(SiIr)$_{4}$,0.0,eV,,,,,,,
SrCeN$_{2}$,1.2207999999999997,eV,,,,,,,
SiNi$_{2}$,0.0,eV,,,,,,,
NaC,0.0,eV,,,,,,,
Cs(MnP)$_{2}$,0,eV,,,,,,,
Pr(BO$_{2}$)$_{3}$,5.3949,eV,,,,,,,
Nd$_{3}$Sb$_{4}$Pt$_{7}$,0.002200000000000202,eV,,,,,,,
Sm$_{3}$Sb$_{4}$Pt$_{7}$,0.0,eV,,,,,,,
Li$_{2}$MgSiO$_{4}$,4.677099999999999,eV,,,,,,,
Nd$_{2}$Te$_{5}$,0.0,eV,,,,,,,
CrSi$_{2}$,0.36459999999999937,eV,,,,,,,
TaSi$_{2}$,0.0,eV,,,,,,,
VAuS$_{2}$,0.0,eV,,,,,,,
NdMgNi$_{4}$,0.0,eV,,,,,,,
Y,0.0,eV,,,,,,,
Mo$_{3}$Ir,0.0,eV,,,,,,,
LaMg$_{2}$Ni,0.0,eV,,,,,,,
Sc$_{6}$FeSb$_{2}$,0,eV,,,,,,,
Y$_{6}$FeSb$_{2}$,0.0,eV,,,,,,,
Lu$_{6}$FeSb$_{2}$,0.0,eV,,,,,,,
Tm$_{6}$FeSb$_{2}$,0.0,eV,,,,,,,
LiTi(SiO$_{3}$)$_{2}$,0.0,eV,,,,,,,
Pr$_{3}$ReO$_{7}$,0.0,eV,,,,,,,
AlAs,0.0,eV,,,,,,,
GaCo,0.0,eV,,,,,,,
LaAsPd,0.0,eV,,,,,,,
BaAgSb,0.0,eV,,,,,,,
CaAgSb,0.0,eV,,,,,,,
CeAgGe,0.0,eV,,,,,,,
SrAgSb,0.0,eV,,,,,,,
LuB$_{2}$,0.12119999999999997,eV,,,,,,,
Sc$_{2}$Al,0.0,eV,,,,,,,
SmAl,0.0,eV,,,,,,,
Sm$_{3}$Al,0.0,eV,,,,,,,
Sr$_{8}$Al$_{7}$,0.0,eV,,,,,,,
TbAl,0.0,eV,,,,,,,
Tb$_{3}$Al,0.0,eV,,,,,,,
Al$_{12}$W,0.0,eV,,,,,,,
YAl,0.0,eV,,,,,,,
Y$_{2}$Al,0.0,eV,,,,,,,
YAl$_{3}$,0.0,eV,,,,,,,
ZrAl,0.0,eV,,,,,,,
PrMg$_{2}$Ag,0.0,eV,,,,,,,
SmMg$_{2}$Ag,0.0,eV,,,,,,,
MgZnAg$_{2}$,0.0,eV,,,,,,,
ScAg,0.0,eV,,,,,,,
ZrAg,0.0,eV,,,,,,,
MgZn$_{2}$,0.0,eV,,,,,,,
DyAu$_{2}$,0.0,eV,,,,,,,
DyPbAu,0.0,eV,,,,,,,
ErAu,0.0,eV,,,,,,,
Li$_{3}$Au,0.0,eV,,,,,,,
LiAu$_{3}$,0.0,eV,,,,,,,
LuAu,0.0,eV,,,,,,,
Li$_{2}$S,3.8953999999999995,eV,,,,,,,
Mg$_{2}$Au,0.0,eV,,,,,,,
Mg$_{3}$Au,0.0,eV,,,,,,,
MnAu$_{2}$,0.0,eV,,,,,,,
NaSnAu,0.0,eV,,,,,,,
NdAu,0.0,eV,,,,,,,
PrAu,0.0,eV,,,,,,,
ScAu,0.0,eV,,,,,,,
SmAu,0.0,eV,,,,,,,
TbAu,0.0,eV,,,,,,,
TiAu,0.0,eV,,,,,,,
Ti$_{3}$Au,0.0,eV,,,,,,,
YAu,0.0,eV,,,,,,,
YbAu$_{4}$,0.0,eV,,,,,,,
Zr$_{3}$Au,0.0,eV,,,,,,,
BaCaSn,0.24659999999999993,eV,,,,,,,
BaCd$_{2}$,0.0,eV,,,,,,,
BaHg$_{2}$,0.0,eV,,,,,,,
BaSn$_{3}$Pd,0.0,eV,,,,,,,
SmPt$_{2}$,0.0,eV,,,,,,,
MnBe$_{2}$,0.0,eV,,,,,,,
BeMo$_{3}$,0.0,eV,,,,,,,
Be$_{2}$Nb$_{3}$,0.0,eV,,,,,,,
Be$_{3}$Nb,0.06359999999999921,eV,,,,,,,
BePd,0.0,eV,,,,,,,
Be$_{2}$Re,0.0,eV,,,,,,,
BeRh,0.0,eV,,,,,,,
ScBe$_{5}$,0.0,eV,,,,,,,
Ta$_{2}$Be,0.0,eV,,,,,,,
TiBe,0.0,eV,,,,,,,
SiIr,0.0,eV,,,,,,,
TiBe$_{12}$,0.0,eV,,,,,,,
Be$_{2}$V,0.0,eV,,,,,,,
Be$_{2}$W,0.0,eV,,,,,,,
ZrBe$_{5}$,0.0,eV,,,,,,,
CaGa$_{2}$,0.0,eV,,,,,,,
Ca$_{3}$(GaNi)$_{4}$,0.0,eV,,,,,,,
CaHg,0.0,eV,,,,,,,
Ca$_{3}$Hg$_{2}$,0.0,eV,,,,,,,
ScIr,0.0,eV,,,,,,,
CaSn$_{3}$,0.0,eV,,,,,,,
CeCd,0.0,eV,,,,,,,
ZrCdCu$_{2}$,0.0,eV,,,,,,,
DyCd$_{2}$,0.0,eV,,,,,,,
DyCd$_{3}$,0.0,eV,,,,,,,
ErCd$_{2}$,0.0,eV,,,,,,,
Cd$_{2}$Hg,0.0,eV,,,,,,,
Tc,0.0,eV,,,,,,,
TiCdHg$_{2}$,0.0,eV,,,,,,,
HoCd$_{3}$,0.0,eV,,,,,,,
Li$_{2}$CdPb,0.0,eV,,,,,,,
LuCd$_{3}$,0.006799999999999695,eV,,,,,,,
MgCd,0.0,eV,,,,,,,
NbCd$_{3}$,0.0,eV,,,,,,,
CdNi,0.0,eV,,,,,,,
V$_{3}$Cd,0.0,eV,,,,,,,
ZrCd$_{3}$,0.0,eV,,,,,,,
CeFe$_{5}$,0.0,eV,,,,,,,
CePt$_{3}$,0.0,eV,,,,,,,
CdO,0.0,eV,,,,,,,
Y$_{3}$TaO$_{7}$,3.5002,eV,,,,,,,
ZrSi,0.0,eV,,,,,,,
Rb$_{2}$Se,1.7968,eV,,,,,,,
P$_{2}$W,0.0,eV,,,,,,,
V$_{5}$S$_{4}$,0.0,eV,,,,,,,
UB$_{2}$C,0.0,eV,,,,,,,
W,0.0,eV,,,,,,,
BeSe,0.0,eV,,,,,,,
Sc$_{3}$Si$_{3}$Ni$_{2}$,0.0,eV,,,,,,,
Dy(Ni$_{2}$As)$_{2}$,0.0,eV,,,,,,,
GaSe,1.2233,eV,,,,,,,
Th,0.0,eV,,,,,,,
PrO,0.0,eV,,,,,,,
ZrP,0.0,eV,,,,,,,
TbF$_{3}$,7.7511,eV,,,,,,,
NbPd$_{3}$,0.0,eV,,,,,,,
CaAl$_{9}$Co$_{2}$,0.0,eV,,,,,,,
CeAlNi,0.0,eV,,,,,,,
PrAl$_{5}$Ni$_{2}$,0.0,eV,,,,,,,
La$_{3}$Co$_{2}$Sn$_{7}$,0.0,eV,,,,,,,
TaCo$_{3}$,0.0,eV,,,,,,,
Ga$_{2}$Cu,0.0,eV,,,,,,,
Na$_{3}$As,0.09410000000000007,eV,,,,,,,
ScGaCu$_{2}$,0.0,eV,,,,,,,
MgCuSn,0.0,eV,,,,,,,
TbCu$_{5}$,0.0,eV,,,,,,,
TiCu,0.0,eV,,,,,,,
Ti$_{3}$Cu,0.0,eV,,,,,,,
ZrZnCu$_{2}$,0.0,eV,,,,,,,
DyHg$_{2}$,0.0,eV,,,,,,,
Er$_{5}$Ga$_{3}$,0.0,eV,,,,,,,
ErHg$_{2}$,0.0,eV,,,,,,,
ErIn,0.0,eV,,,,,,,
ErInPd$_{2}$,0.0,eV,,,,,,,
ErSn$_{3}$,0.0,eV,,,,,,,
DyTlPd,0.0,eV,,,,,,,
DyTl,0.0,eV,,,,,,,
EuHg,0.0,eV,,,,,,,
LiF,8.7161,eV,,,,,,,
NdFe$_{5}$,0.0,eV,,,,,,,
NpFe$_{2}$,0.0,eV,,,,,,,
YFe$_{5}$,0.0,eV,,,,,,,
HfGa$_{3}$,0.0,eV,,,,,,,
GaIr,0.0,eV,,,,,,,
LiGaSi,0.19090000000000007,eV,,,,,,,
TmGa$_{2}$Pd,0.0,eV,,,,,,,
Nb$_{3}$Ga$_{2}$,0.0,eV,,,,,,,
NdGa$_{2}$Ni,0.0,eV,,,,,,,
Ga$_{3}$Ni$_{2}$,0.0,eV,,,,,,,
Ga$_{3}$Ni$_{5}$,0.0,eV,,,,,,,
NdCu$_{5}$,0.005399999999999849,eV,,,,,,,
ScGaNi$_{2}$,0.0,eV,,,,,,,
ScGa$_{2}$Ni,0.0,eV,,,,,,,
PrGa,0.0,eV,,,,,,,
Pr$_{3}$Ga,0.0,eV,,,,,,,
GaPt$_{3}$,0.0,eV,,,,,,,
ScGa,0.0,eV,,,,,,,
ScGa$_{2}$,0.0,eV,,,,,,,
Sm$_{9}$Ga$_{4}$,0.0,eV,,,,,,,
TaGa$_{3}$,0.0,eV,,,,,,,
TbGa,0.0,eV,,,,,,,
TbGa$_{3}$,0.0,eV,,,,,,,
ThGa$_{2}$,0.0,eV,,,,,,,
YGa,0.0,eV,,,,,,,
Gd,0.0,eV,,,,,,,
GdHg,0.00990000000000002,eV,,,,,,,
GdPd,0.004499999999999282,eV,,,,,,,
GdPt,0.009400000000000297,eV,,,,,,,
Al$_{2}$O$_{3}$,5.853700000000001,eV,,,,,,,
Ca$_{3}$Al$_{7}$Ag$_{2}$,0.01750000000000007,eV,,,,,,,
CaGa$_{3}$Ni$_{2}$,0.0,eV,,,,,,,
ErGaCo,0.0,eV,,,,,,,
Er(TiGa$_{2}$)$_{2}$,0.0,eV,,,,,,,
Er(VGa$_{2}$)$_{2}$,0.0,eV,,,,,,,
Er$_{3}$Rh,0.0,eV,,,,,,,
Sc(GaFe)$_{6}$,0.0,eV,,,,,,,
HfGa$_{2}$,0.0,eV,,,,,,,
Hf$_{2}$Ga$_{3}$,0.0,eV,,,,,,,
HoGaNi,0.0,eV,,,,,,,
YGa$_{2}$Ni,0.0,eV,,,,,,,
Y(TiGa$_{2}$)$_{2}$,0.0,eV,,,,,,,
Tb,0.0,eV,,,,,,,
UTe,0.0,eV,,,,,,,
HfMn$_{2}$,0.0,eV,,,,,,,
TiB$_{2}$,0.0,eV,,,,,,,
HfOs,0.0,eV,,,,,,,
Hf$_{2}$Pd,0.0,eV,,,,,,,
HfRh,0.0,eV,,,,,,,
ThS$_{2}$,1.0319000000000003,eV,,,,,,,
HfTc,0.0,eV,,,,,,,
KHg,0.0,eV,,,,,,,
LaHg$_{2}$,0.0,eV,,,,,,,
MgHg$_{2}$,0.0,eV,,,,,,,
Mg$_{5}$Hg$_{3}$,0.0,eV,,,,,,,
NaHg$_{2}$,0.0,eV,,,,,,,
NdHg,0.0,eV,,,,,,,
NdHg$_{2}$,0.0,eV,,,,,,,
PrHg,0.0,eV,,,,,,,
Ti$_{3}$O$_{5}$,2.0000000000042206E-4,eV,,,,,,,
Hg$_{2}$Pt,0.0,eV,,,,,,,
ScHg,0.0,eV,,,,,,,
SrHg$_{2}$,0.0,eV,,,,,,,
TlHg,0.0,eV,,,,,,,
TlHg$_{3}$,0.0,eV,,,,,,,
TmHg,0.0,eV,,,,,,,
HoIr,0.0,eV,,,,,,,
HoSn$_{3}$,0.0,eV,,,,,,,
GaAg,0.0,eV,,,,,,,
Th$_{2}$Pd,0.0,eV,,,,,,,
MnSnIr,0.0,eV,,,,,,,
MoIr,0.0,eV,,,,,,,
MoIr$_{3}$,0.0,eV,,,,,,,
TmIr,0.0,eV,,,,,,,
ZrIr,0.07230000000000025,eV,,,,,,,
Y$_{2}$(Al$_{3}$Co)$_{3}$,0.0,eV,,,,,,,
LaPt$_{3}$,0.0,eV,,,,,,,
LaTl,0.0,eV,,,,,,,
Li$_{3}$Pd,0.0,eV,,,,,,,
Li$_{2}$ZnSn,0.0,eV,,,,,,,
LuNi$_{5}$,0.0018000000000002458,eV,,,,,,,
LuNi$_{2}$Sn,0.0,eV,,,,,,,
LuPb$_{2}$,0.0,eV,,,,,,,
LuPb$_{3}$,0.0,eV,,,,,,,
LuRu,0.0,eV,,,,,,,
LuZn,0.06229999999999958,eV,,,,,,,
TbMg$_{2}$,0.0,eV,,,,,,,
MgTl,0.0,eV,,,,,,,
YMg$_{2}$,0.0,eV,,,,,,,
URh$_{3}$,0.0,eV,,,,,,,
MnNi,0.0,eV,,,,,,,
MnNi$_{3}$,0.0,eV,,,,,,,
MnZn,0.0,eV,,,,,,,
MnZn$_{3}$,0.0,eV,,,,,,,
Ni$_{3}$Mo,0.0,eV,,,,,,,
Ni$_{4}$Mo,0.0,eV,,,,,,,
MoP$_{4}$,0.0,eV,,,,,,,
LaAlGe,0.0,eV,,,,,,,
LiAl$_{2}$Ir,0.0,eV,,,,,,,
NbNi$_{3}$,0.0,eV,,,,,,,
NbPt$_{2}$,0.0,eV,,,,,,,
NbRh,0.0,eV,,,,,,,
NbRu,0.0,eV,,,,,,,
NbRu$_{3}$,0.0,eV,,,,,,,
NiSnRh$_{2}$,0.0,eV,,,,,,,
TiRh$_{3}$,0.0,eV,,,,,,,
YNiSb,0.2962000000000007,eV,,,,,,,
ScNi,0.0,eV,,,,,,,
Ni$_{3}$Sn,0.0,eV,,,,,,,
TlNi,0.0,eV,,,,,,,
TmNi,0.0,eV,,,,,,,
TmNi$_{5}$,0.0,eV,,,,,,,
Tm$_{2}$Ni$_{17}$,0.0,eV,,,,,,,
Li$_{2}$S,3.3862000000000005,eV,,,,,,,
VNi$_{2}$,0.0,eV,,,,,,,
Zn$_{11}$Ni$_{2}$,0.0,eV,,,,,,,
ZrZnNi$_{4}$,0.0,eV,,,,,,,
NpOs$_{2}$,0.0,eV,,,,,,,
NpRh$_{3}$,0.0,eV,,,,,,,
NbAlRu$_{2}$,0.0,eV,,,,,,,
TbAlNi,0.0,eV,,,,,,,
SmAl$_{3}$Pd$_{2}$,0.0,eV,,,,,,,
Ho$_{4}$C$_{7}$,0.6147,eV,,,,,,,
PtO,0.0,eV,,,,,,,
ZrOs,0.0,eV,,,,,,,
Yb$_{2}$Pb,0.0,eV,,,,,,,
TiPd,0.0,eV,,,,,,,
YTlPd,0.0,eV,,,,,,,
YbTlPd,0.0,eV,,,,,,,
VPd$_{2}$,0.0,eV,,,,,,,
Sc$_{2}$Pt,0.0,eV,,,,,,,
Tb$_{2}$Pt,0.0,eV,,,,,,,
TiPt,0.0,eV,,,,,,,
TlPt,0.0,eV,,,,,,,
ZrPt,0.0,eV,,,,,,,
PuRu,0.0,eV,,,,,,,
PuRu$_{2}$,0.0,eV,,,,,,,
ScRe$_{2}$,0.0,eV,,,,,,,
Sc$_{5}$Re$_{24}$,0.0,eV,,,,,,,
GaSb,0.0,eV,,,,,,,
TiSiRu,0.0,eV,,,,,,,
TbRh,0.0,eV,,,,,,,
TbRh$_{5}$,0.0,eV,,,,,,,
TiRh,0.0,eV,,,,,,,
TmRh,0.0,eV,,,,,,,
YRh$_{5}$,0.0,eV,,,,,,,
ScZn,0.0,eV,,,,,,,
ScZn$_{12}$,0.0,eV,,,,,,,
SmTl,0.0,eV,,,,,,,
SmTl$_{3}$,0.0,eV,,,,,,,
TaNi$_{2}$,0.0,eV,,,,,,,
TbSn$_{3}$,0.0,eV,,,,,,,
YSn$_{3}$,0.0,eV,,,,,,,
TaTc,0.0,eV,,,,,,,
TiTc,0.0,eV,,,,,,,
YTl,0.0,eV,,,,,,,
YbTl,0.0,eV,,,,,,,
YbZn,0.0,eV,,,,,,,
VZn$_{3}$,0.0,eV,,,,,,,
LuPd$_{3}$,0.0,eV,,,,,,,
TiCrP,0.0,eV,,,,,,,
Tm$_{2}$NiAs$_{2}$,0.0,eV,,,,,,,
LiGaSe$_{2}$,2.0656,eV,,,,,,,
Zr$_{2}$SN$_{2}$,0.5637999999999996,eV,,,,,,,
Lu$_{8}$Te,0.0,eV,,,,,,,
La$_{2}$MgGeO$_{6}$,0.42329999999999934,eV,,,,,,,
Zr$_{2}$Fe,0.0,eV,,,,,,,
CeB$_{2}$Ir$_{3}$,0.0,eV,,,,,,,
PrB$_{2}$Ir$_{3}$,0.0,eV,,,,,,,
Yb$_{5}$Ge$_{3}$,0.0,eV,,,,,,,
PrBPt$_{3}$,0.0,eV,,,,,,,
NdBPt$_{3}$,0.0,eV,,,,,,,
NaErO$_{2}$,4.0684000000000005,eV,,,,,,,
KY$_{2}$CuS$_{4}$,0.9919999999999995,eV,,,,,,,
KNd$_{2}$CuS$_{4}$,0.9129,eV,,,,,,,
KSm$_{2}$CuS$_{4}$,0.9390999999999998,eV,,,,,,,
Tb$_{2}$KCuS$_{4}$,0.9948999999999999,eV,,,,,,,
KHo$_{2}$CuS$_{4}$,1.036,eV,,,,,,,
Si$_{3}$N$_{4}$,4.026700000000001,eV,,,,,,,
Sb(MoS)$_{2}$,0.0,eV,,,,,,,
PrCo$_{4}$B,0.0,eV,,,,,,,
Ba$_{2}$Si$_{2}$CuO$_{7}$,0.17859999999999987,eV,,,,,,,
TmMnGe,0.0,eV,,,,,,,
ZnNi$_{3}$Sb$_{2}$,0.0,eV,,,,,,,
ZnNiSb,0.0,eV,,,,,,,
LaInO$_{3}$,2.7507,eV,,,,,,,
KCa(PO$_{3}$)$_{3}$,5.0389,eV,,,,,,,
Tb$_{2}$Al$_{6}$Si$_{4}$Pt,0.0,eV,,,,,,,
Tb$_{2}$Al$_{6}$Si$_{4}$Au,0.0,eV,,,,,,,
UBe$_{13}$,0.0,eV,,,,,,,
Dy$_{2}$Al$_{6}$Si$_{4}$Pt,0.0,eV,,,,,,,
Dy$_{2}$Al$_{6}$Si$_{4}$Au,0.0,eV,,,,,,,
KSmGeSe$_{4}$,1.6287,eV,,,,,,,
Eu$_{3}$(Cu$_{2}$Sn)$_{4}$,0.0,eV,,,,,,,
Rb$_{2}$GeS$_{3}$,2.3238,eV,,,,,,,
ThC,0.0,eV,,,,,,,
Ag$_{2}$SeO$_{4}$,0.5841,eV,,,,,,,
K$_{2}$Mg(PSe$_{3}$)$_{2}$,1.8097999999999999,eV,,,,,,,
Li$_{2}$Ca,0.0,eV,,,,,,,
Cd(C$_{2}$N$_{3}$)$_{2}$,4.5428,eV,,,,,,,
Ca$_{3}$SiO,0.18660000000000032,eV,,,,,,,
Yb$_{3}$SnO,0.0,eV,,,,,,,
Yb$_{3}$PbO,0.0,eV,,,,,,,
BPO$_{4}$,6.9876,eV,,,,,,,
BAsO$_{4}$,3.8556,eV,,,,,,,
Cu$_{2}$SnSe$_{3}$,0.0,eV,,,,,,,
BaTi(BO$_{3}$)$_{2}$,2.3876999999999997,eV,,,,,,,
Hf$_{3}$N$_{4}$,1.0251000000000001,eV,,,,,,,
Zr$_{3}$N$_{4}$,0.6807999999999996,eV,,,,,,,
Ce$_{2}$(Zn$_{2}$Ge)$_{3}$,0.0,eV,,,,,,,
Pr$_{2}$(Zn$_{2}$Ge)$_{3}$,0.0,eV,,,,,,,
Nd$_{2}$(Zn$_{2}$Ge)$_{3}$,0.0,eV,,,,,,,
Sm$_{2}$(Zn$_{2}$Ge)$_{3}$,0.0,eV,,,,,,,
CF$_{4}$,9.0612,eV,,,,,,,
BaYSi$_{4}$N$_{7}$,2.7326999999999995,eV,,,,,,,
Sc$_{2}$(SeO$_{4}$)$_{3}$,3.5636,eV,,,,,,,
Al$_{2}$Se$_{3}$,1.8016,eV,,,,,,,
Sr$_{3}$(SiAs$_{2}$)$_{2}$,0.9178999999999999,eV,,,,,,,
HfTe$_{5}$,0.001200000000000756,eV,,,,,,,
SiO$_{2}$,5.5264999999999995,eV,,,,,,,
VTe$_{2}$,0.002400000000000624,eV,,,,,,,
ScCu,0.0,eV,,,,,,,
Tc$_{2}$P$_{3}$,0.0,eV,,,,,,,
Nd$_{2}$HgO$_{4}$,2.2077,eV,,,,,,,
Ba$_{3}$(SiAs$_{2}$)$_{2}$,0.8267000000000002,eV,,,,,,,
TePt,0.0,eV,,,,,,,