formula,Property Band Gap,Property Band Gap units,Property Band gap,Property Band gap units,Temperature (Property Band gap),Temperature (Property Band gap) units,Property Color,Temperature (Property Color),Temperature (Property Color) units
Hg$_{3}$AsBrO$_{4}$,1.9091,eV,,,,,,,
BaSbSe$_{2}$F,1.3342999999999998,eV,,,,,,,
SiO$_{2}$,5.6495,eV,,,,,,,
K$_{2}$MoP$_{2}$O$_{9}$,3.0343999999999998,eV,,,,,,,
AgAsO$_{3}$,0.49849999999999994,eV,,,,,,,
K$_{2}$B$_{6}$H$_{2}$O$_{11}$,5.364199999999999,eV,,,,,,,
Na$_{2}$Sr$_{2}$Al$_{2}$PO$_{4}$F$_{9}$,5.8328,eV,,,,,,,
Ba$_{2}$CoReO$_{6}$,0.16670000000000051,eV,,,,,,,
H$_{2}$O,5.461,eV,,,,,,,
CS$_{5}$N$_{5}$O$_{3}$F,1.8810999999999998,eV,,,,,,,
Dy$_{2}$Tc$_{2}$O$_{7}$,0.0,eV,,,,,,,
S,2.5395999999999996,eV,,,,,,,
Gd$_{4}$Si$_{2}$Se$_{3}$O$_{7}$,1.0750000000000002,eV,,,,,,,
Ca$_{5}$(ReO$_{6}$)$_{2}$,2.1161000000000003,eV,,,,,,,
K$_{3}$Ta$_{2}$S$_{11}$,1.7459000000000002,eV,,,,,,,
Ho$_{3}$ReO$_{7}$,0,eV,,,,,,,
H$_{16}$C$_{3}$NF$_{7}$,7.3689,eV,,,,,,,
KBC$_{4}$NF$_{9}$,6.5143,eV,,,,,,,
Pr$_{5}$(RuO$_{6}$)$_{2}$,0.005700000000000038,eV,,,,,,,
LaErS$_{3}$,0.8793999999999995,eV,,,,,,,
VS$_{2}$N$_{3}$Cl$_{2}$,0.8613,eV,,,,,,,
Er$_{3}$SiCuS$_{7}$,1.8759999999999994,eV,,,,,,,
SrBe$_{2}$(BO$_{3}$)$_{2}$,5.3456,eV,,,,,,,
HgC$_{2}$O$_{2}$F$_{3}$,3.2547,eV,,,,,,,
GaTeO$_{3}$F,3.7078,eV,,,,,,,
La$_{3}$Si$_{2}$ClO$_{8}$,4.5016,eV,,,,,,,
Ni(NF$_{7}$)$_{2}$,2.3025,eV,,,,,,,
K$_{2}$Sr(PO$_{3}$)$_{4}$,5.602600000000001,eV,,,,,,,
In$_{7}$GeIrO$_{8}$,0.4081999999999999,eV,,,,,,,
KCN$_{3}$O$_{2}$,3.348,eV,,,,,,,
K$_{2}$Si$_{4}$CuO$_{10}$,1.0045,eV,,,,,,,
YPd$_{3}$,0.0,eV,,,,,,,
YMgGa,0.0,eV,,,,,,,
SbSe$_{6}$IF$_{6}$,1.5285,eV,,,,,,,
CrFe(BiO$_{3}$)$_{2}$,1.9969000000000001,eV,,,,,,,
NaAsH$_{4}$O$_{5}$,3.8417000000000003,eV,,,,,,,
Na$_{2}$CrCuF$_{7}$,0.00839999999999999,eV,,,,,,,
Sb$_{2}$OsC$_{4}$(OF$_{3}$)$_{4}$,3.6738,eV,,,,,,,
Nd$_{4}$GeO$_{8}$,3.5008,eV,,,,,,,
Nd$_{6}$S$_{4}$BrN$_{3}$,1.2748999999999997,eV,,,,,,,
KBi(PO$_{3}$)$_{4}$,4.8932,eV,,,,,,,
Na$_{24}$In$_{5}$O$_{15}$,0.0,eV,,,,,,,
BaErAgS$_{3}$,0.9929999999999999,eV,,,,,,,
SrH$_{12}$C$_{4}$S$_{4}$(NO$_{4}$)$_{2}$,5.6657,eV,,,,,,,
RbC$_{2}$S$_{2}$N(OF)$_{4}$,4.8612,eV,,,,,,,
KB(CO$_{2}$)$_{4}$,3.4882999999999997,eV,,,,,,,
Eu$_{4}$Br$_{6}$O,0.7505999999999999,eV,,,,,,,
VS$_{2}$N$_{3}$Cl$_{2}$,0.8077000000000001,eV,,,,,,,
H$_{18}$PbC$_{6}$S$_{4}$N$_{2}$O$_{9}$,4.9717,eV,,,,,,,
Rb$_{3}$Nb$_{6}$SBr$_{17}$,0.5722,eV,,,,,,,
CuH$_{12}$C$_{4}$(NO)$_{6}$,0.10450000000000004,eV,,,,,,,
PH$_{3}$PbCO$_{3}$,4.1371,eV,,,,,,,
KLaGeS$_{4}$,2.3035999999999994,eV,,,,,,,
CuCSN,2.0694999999999997,eV,,,,,,,
Rb$_{5}$CeCu$_{2}$(NO$_{2}$)$_{12}$,0.0,eV,,,,,,,
LiNb$_{3}$(Bi$_{2}$O$_{7}$)$_{2}$,2.7406,eV,,,,,,,
NaY(SeO$_{3}$)$_{2}$,4.1636,eV,,,,,,,
NbTl(BO$_{3}$)$_{2}$,3.4093,eV,,,,,,,
K$_{3}$Nd(AsS$_{4}$)$_{2}$,1.6896,eV,,,,,,,
K$_{2}$Hg$_{2}$SCl$_{4}$O$_{3}$,2.204,eV,,,,,,,
KP(OF)$_{2}$,5.2364999999999995,eV,,,,,,,
CsBC$_{3}$NO$_{2}$F$_{9}$,3.4032,eV,,,,,,,
SnP$_{2}$(Cl$_{5}$O)$_{2}$,2.8617,eV,,,,,,,
NaI$_{3}$O$_{8}$,3.1308000000000002,eV,,,,,,,
Ba$_{3}$Y(BO$_{2}$)$_{9}$,5.1876999999999995,eV,,,,,,,
KNa$_{2}$AuO$_{2}$,2.0423,eV,,,,,,,
Na$_{2}$Pd(SeO$_{4}$)$_{2}$,1.596,eV,,,,,,,
Li$_{2}$Hg(PO$_{3}$)$_{4}$,3.2670999999999997,eV,,,,,,,
Ag$_{2}$Bi$_{2}$S$_{3}$Cl$_{2}$,1.6367999999999996,eV,,,,,,,
SrVF$_{5}$,2.3682000000000003,eV,,,,,,,
Ca$_{2}$MgSi$_{2}$O$_{7}$,4.6042000000000005,eV,,,,,,,
Na$_{4}$Al$_{3}$Ge$_{3}$BrO$_{12}$,4.0539000000000005,eV,,,,,,,
La$_{2}$Si(IO$_{2}$)$_{2}$,2.9986000000000006,eV,,,,,,,
PS$_{2}$N$_{3}$(Cl$_{2}$O)$_{2}$,3.945,eV,,,,,,,
VBiO$_{4}$,2.528,eV,,,,,,,
SiO$_{2}$,5.4377,eV,,,,,,,
ScF$_{3}$,6.0425,eV,,,,,,,
Tl$_{2}$BiP$_{2}$S$_{7}$,2.1268,eV,,,,,,,
Rb$_{2}$TeH$_{6}$SO$_{10}$,3.0601,eV,,,,,,,
K$_{3}$Cu(NO$_{3}$)$_{5}$,0.8729,eV,,,,,,,
U(NiGe)$_{2}$,0.0,eV,,,,,,,
Na$_{7}$Y$_{2}$P$_{7}$O$_{24}$,4.8343,eV,,,,,,,
Pr$_{4}$B$_{10}$O$_{21}$,5.002700000000001,eV,,,,,,,
KLi$_{3}$PbO$_{4}$,1.7254999999999998,eV,,,,,,,
ErGeBiO$_{5}$,3.3459000000000003,eV,,,,,,,
K$_{2}$Zn$_{6}$O$_{7}$,0.7861,eV,,,,,,,
ScH$_{24}$C$_{3}$S$_{3}$(N$_{3}$O$_{5}$)$_{3}$,4.3525,eV,,,,,,,
P$_{2}$RhClF$_{6}$,1.4246999999999999,eV,,,,,,,
KLiMnO$_{2}$,1.4212999999999998,eV,,,,,,,
CsTa(PO$_{4}$)$_{2}$,3.3899999999999997,eV,,,,,,,
IN$_{2}$O$_{4}$F$_{5}$,1.4645000000000001,eV,,,,,,,
YSiNO$_{2}$,4.0731,eV,,,,,,,
NaZr$_{2}$CuF$_{11}$,0.0,eV,,,,,,,
K$_{2}$Zn$_{2}$Si$_{8}$O$_{19}$,4.2225,eV,,,,,,,
CaTeCO$_{5}$,3.8456,eV,,,,,,,
Li$_{3}$Er(NO$_{3}$)$_{6}$,3.1147,eV,,,,,,,
Eu$_{3}$(AsS$_{4}$)$_{2}$,0.15409999999999968,eV,,,,,,,
Na$_{2}$MgH$_{8}$(SO$_{6}$)$_{2}$,5.2316,eV,,,,,,,
CaH$_{8}$(NO$_{5}$)$_{2}$,3.5334,eV,,,,,,,
Ba$_{2}$Zn(BO$_{3}$)$_{2}$,3.6265,eV,,,,,,,
H$_{8}$C$_{3}$N$_{2}$O,4.6949000000000005,eV,,,,,,,
Ba$_{5}$Cu$_{4}$ClF$_{17}$,0.547,eV,,,,,,,
KLi(PO$_{3}$)$_{2}$,5.2914,eV,,,,,,,
Pb$_{3}$SO$_{6}$,2.936,eV,,,,,,,
GePb$_{3}$O$_{5}$,2.2715,eV,,,,,,,
AlPO$_{4}$,5.662,eV,,,,,,,
La$_{2}$MoO$_{6}$,3.6508000000000003,eV,,,,,,,
Na$_{9}$ZrP$_{4}$ClO$_{16}$,3.9694000000000003,eV,,,,,,,
BaSrTa$_{2}$O$_{7}$,2.1898,eV,,,,,,,
Ti$_{4}$Bi$_{2}$O$_{11}$,2.0919999999999996,eV,,,,,,,
NaSmSe$_{2}$O$_{7}$,3.3052,eV,,,,,,,
CrCdF$_{6}$,1.6570999999999998,eV,,,,,,,
SiB$_{11}$H$_{10}$C$_{4}$F$_{11}$,3.4362,eV,,,,,,,
Sb$_{2}$(KrF$_{4}$)$_{5}$,1.1692,eV,,,,,,,
V$_{2}$Co(PO$_{5}$)$_{2}$,1.6504000000000003,eV,,,,,,,
Ba$_{3}$Ho$_{2}$(PS$_{4}$)$_{4}$,2.3798999999999997,eV,,,,,,,
WO$_{3}$,1.1431,eV,,,,,,,
La$_{4}$Ti$_{5}$(Si$_{2}$O$_{11}$)$_{2}$,0.0,eV,,,,,,,
Mg$_{7}$Si$_{8}$(O$_{11}$F)$_{2}$,5.3655,eV,,,,,,,
Ba$_{2}$Cu(BO$_{3}$)$_{2}$,0.013500000000000068,eV,,,,,,,
P$_{2}$IrClF$_{6}$,0.8571,eV,,,,,,,
Zn$_{2}$Si$_{3}$Pb$_{4}$SO$_{15}$,3.4961000000000007,eV,,,,,,,
BaBiBO$_{4}$,3.5528000000000004,eV,,,,,,,
NaVF$_{4}$,2.0363,eV,,,,,,,
Rb$_{2}$Mo$_{3}$O$_{10}$,3.4062,eV,,,,,,,
Cd(InS$_{2}$)$_{2}$,1.0509,eV,,,,,,,
CdSeO$_{3}$,3.4047,eV,,,,,,,
H$_{3}$CS,3.5897,eV,,,,,,,
SrTiSi$_{2}$O$_{7}$,3.6068,eV,,,,,,,
NaCuAsO$_{4}$,0.0,eV,,,,,,,
Ca$_{5}$Te$_{3}$O$_{14}$,1.6785,eV,,,,,,,
RbReSO$_{3}$,2.7978,eV,,,,,,,
CsIn$_{3}$O$_{5}$,1.4700000000000002,eV,,,,,,,
Zr(PO$_{3}$)$_{4}$,4.1158,eV,,,,,,,
GdH$_{6}$C$_{4}$NO$_{9}$,3.0599000000000003,eV,,,,,,,
Sr$_{3}$Al$_{2}$Cl$_{2}$O$_{5}$,4.2155,eV,,,,,,,
Ba$_{3}$Cr$_{2}$WO$_{9}$,2.0490999999999997,eV,,,,,,,
RbGeBiS$_{4}$,1.9799000000000002,eV,,,,,,,
Rb$_{2}$HfS$_{4}$,2.1728000000000005,eV,,,,,,,
Se$_{2}$S(NCl)$_{2}$,1.6977,eV,,,,,,,
H$_{2}$C$_{3}$O$_{4}$,3.4866,eV,,,,,,,
SeS$_{4}$N$_{3}$Cl$_{5}$,2.3783,eV,,,,,,,
CsLa(PO$_{3}$)$_{4}$,5.0452,eV,,,,,,,
BH$_{11}$C$_{4}$NClF$_{4}$,6.373200000000001,eV,,,,,,,
Nd$_{3}$Si$_{2}$S$_{8}$Br,2.7288,eV,,,,,,,
CsLi$_{2}$BS$_{3}$,3.0936,eV,,,,,,,
Nd$_{2}$Ta$_{2}$Cl$_{2}$O$_{7}$,3.0798,eV,,,,,,,
BaCrF$_{6}$,0.0,eV,,,,,,,
Na$_{2}$Te$_{4}$MoO$_{12}$,2.678,eV,,,,,,,
K$_{3}$Cr$_{2}$(PS$_{4}$)$_{3}$,1.2898,eV,,,,,,,
NaIO$_{3}$,3.3299999999999996,eV,,,,,,,
La$_{2}$Fe$_{2}$Se$_{2}$O$_{3}$,2.0092,eV,,,,,,,
Rb$_{2}$U$_{3}$(IO$_{5}$)$_{4}$,1.8860999999999999,eV,,,,,,,
La$_{4}$S$_{3}$NCl$_{3}$,2.9165,eV,,,,,,,
AgTeO$_{3}$,1.4211,eV,,,,,,,
Ni$_{2}$Hg$_{2}$SF$_{6}$,2.0223999999999998,eV,,,,,,,
K$_{2}$Li$_{4}$UO$_{6}$,2.1501,eV,,,,,,,
Bi$_{2}$PdO$_{4}$,0.0,eV,,,,,,,
OsXe(O$_{2}$F$_{3}$)$_{2}$,2.6167,eV,,,,,,,
RbBa$_{4}$Sb$_{3}$O,0.9396,eV,,,,,,,
K$_{3}$Sb$_{7}$(SO$_{3}$)$_{3}$,1.8339999999999996,eV,,,,,,,
SiO$_{2}$,5.6598,eV,,,,,,,
Ba$_{21}$Ge$_{2}$O$_{5}$,0.0,eV,,,,,,,
Na$_{3}$Fe$_{5}$O$_{9}$,1.7229999999999999,eV,,,,,,,
AlBPbO$_{4}$,3.0814000000000004,eV,,,,,,,
K$_{2}$S,2.0512,eV,,,,,,,
Na$_{3}$Cr$_{2}$(PS$_{4}$)$_{3}$,1.2925,eV,,,,,,,
CdB$_{2}$XeF$_{10}$,2.8814,eV,,,,,,,
TiSO$_{5}$,2.2431,eV,,,,,,,
Rb$_{2}$Al$_{2}$B$_{2}$O$_{7}$,4.1788,eV,,,,,,,
Na$_{4}$Al$_{3}$Ge$_{3}$ClO$_{12}$,4.2529,eV,,,,,,,
Ho$_{2}$Sn$_{3}$(PbS$_{4}$)$_{3}$,0.6225000000000005,eV,,,,,,,
Gd(PO$_{3}$)$_{3}$,2.9356,eV,,,,,,,
YTaO$_{4}$,4.1106,eV,,,,,,,
Sn$_{2}$PCO$_{6}$,2.3095999999999997,eV,,,,,,,
P$_{6}$Pb$_{3}$Xe$_{11}$F$_{58}$,2.3499,eV,,,,,,,
AsS$_{4}$N$_{4}$F$_{5}$,1.7121,eV,,,,,,,
La$_{5}$Sb$_{4}$(O$_{4}$F)$_{3}$,3.3074,eV,,,,,,,
KLi(PO$_{3}$)$_{2}$,5.4798,eV,,,,,,,
SbP(Cl$_{2}$F$_{3}$)$_{2}$,4.487299999999999,eV,,,,,,,
MoS$_{3}$(NCl$_{4}$)$_{2}$,0.5145,eV,,,,,,,
Er$_{2}$Te$_{5}$O$_{13}$,3.0079999999999996,eV,,,,,,,
KCrCuF$_{6}$,0.3488,eV,,,,,,,
Cu$_{3}$P$_{4}$(SI)$_{3}$,1.5135999999999998,eV,,,,,,,
K$_{3}$ZnNCl$_{4}$O$_{3}$,3.3079,eV,,,,,,,
SiO$_{2}$,5.3664000000000005,eV,,,,,,,
Na$_{5}$TiP$_{2}$O$_{9}$F,3.1509,eV,,,,,,,
Ti$_{4}$Bi$_{2}$O$_{11}$,2.1035999999999997,eV,,,,,,,
Zn$_{2}$P$_{2}$O$_{7}$,3.6862,eV,,,,,,,
Ba$_{7}$Sc$_{6}$Al$_{2}$O$_{19}$,2.4773,eV,,,,,,,
Na$_{2}$CoGeO$_{4}$,2.3165000000000004,eV,,,,,,,
KCrF$_{4}$,2.9227,eV,,,,,,,
Sr$_{4}$B$_{14}$O$_{25}$,5.206200000000001,eV,,,,,,,
BiTeIO$_{3}$,2.3329,eV,,,,,,,
ZnAg$_{2}$C$_{4}$(SN)$_{4}$,3.0002999999999997,eV,,,,,,,
NaNb$_{3}$(TeO$_{4}$)$_{4}$,2.0237000000000003,eV,,,,,,,
Nd$_{7}$(S$_{2}$Cl$_{3}$)$_{3}$,2.2068,eV,,,,,,,
KCu$_{4}$(PO$_{4}$)$_{3}$,0.0,eV,,,,,,,
WSF$_{4}$,3.3106,eV,,,,,,,
K$_{3}$Nb$_{3}$Si$_{2}$O$_{13}$,2.1454,eV,,,,,,,
SiO$_{2}$,5.6325,eV,,,,,,,
BaZr(BO$_{3}$)$_{2}$,4.1141,eV,,,,,,,
Sb$_{2}$ClF$_{17}$,0.3186,eV,,,,,,,
ZrS$_{4}$(N$_{2}$Cl$_{3}$)$_{2}$,1.5324,eV,,,,,,,
Ba$_{4}$Na(BiO$_{4}$)$_{3}$,0.2658999999999998,eV,,,,,,,
NaNbO$_{3}$,1.8832999999999998,eV,,,,,,,
Hg$_{3}$AsS$_{4}$Cl,1.5137999999999998,eV,,,,,,,
Tl$_{3}$AsS$_{3}$,1.565,eV,,,,,,,
SiO$_{2}$,5.664199999999999,eV,,,,,,,
Cs$_{3}$MnF$_{7}$,1.5495,eV,,,,,,,
SrBi$_{2}$(B$_{2}$O$_{5}$)$_{2}$,3.6450000000000005,eV,,,,,,,
PBrNF,4.2347,eV,,,,,,,
Zr$_{2}$H$_{12}$(N$_{2}$O$_{7}$)$_{5}$,1.4476,eV,,,,,,,
Ge$_{4}$PbO$_{9}$,3.4876000000000005,eV,,,,,,,
TiS$_{3}$,0.0,eV,,,,,,,
CsKTeH$_{6}$SO$_{10}$,3.3064999999999998,eV,,,,,,,
Na$_{2}$CaPO$_{4}$F,4.7508,eV,,,,,,,
IOF$_{3}$,3.6275000000000004,eV,,,,,,,
Ba$_{5}$Ta$_{2}$Cl$_{2}$O$_{9}$,3.5216000000000003,eV,,,,,,,
SbTeClO$_{3}$,3.1498000000000004,eV,,,,,,,
RbLuP$_{2}$O$_{7}$,5.0946,eV,,,,,,,
BaNaNdSi$_{2}$O$_{7}$,4.4466,eV,,,,,,,
SrHo$_{2}$O$_{4}$,3.7325000000000004,eV,,,,,,,
U$_{8}$FeS$_{17}$,0.0,eV,,,,,,,
SiO$_{2}$,4.1899,eV,,,,,,,
CaAl$_{2}$O$_{4}$,4.190300000000001,eV,,,,,,,
Pr$_{3}$Si$_{2}$Cl$_{3}$O$_{7}$,4.8449,eV,,,,,,,
K$_{2}$CS$_{2}$(O$_{3}$F)$_{2}$,5.6438999999999995,eV,,,,,,,
KLuP$_{2}$O$_{7}$,5.3936,eV,,,,,,,
Tm$_{4}$Mo$_{4}$O$_{11}$,0.01100000000000012,eV,,,,,,,
Sc$_{2}$Si$_{2}$O$_{7}$,4.2797,eV,,,,,,,
BeF$_{2}$,8.0776,eV,,,,,,,
RbU$_{2}$SbS$_{8}$,0.0,eV,,,,,,,
NaGdH$_{2}$S$_{2}$O$_{9}$,2.9139000000000004,eV,,,,,,,
NiPbF$_{6}$,2.2269,eV,,,,,,,
Na$_{2}$Si$_{4}$Cu$_{2}$O$_{11}$,0.2544000000000002,eV,,,,,,,
LaB$_{2}$ClO$_{4}$,4.154100000000001,eV,,,,,,,
Co$_{2}$AsClO$_{4}$,2.6492000000000004,eV,,,,,,,
Ba$_{9}$LiSi$_{10}$C(ClO$_{4}$)$_{7}$,4.6715,eV,,,,,,,
Sb$_{4}$PtC$_{4}$(O$_{2}$F$_{11}$)$_{2}$,3.5057,eV,,,,,,,
Bi$_{4}$Au$_{2}$O$_{9}$,0.8623000000000003,eV,,,,,,,
AgH$_{8}$C$_{5}$S$_{2}$O$_{2}$F$_{3}$,3.2201,eV,,,,,,,
Pr$_{2}$Zr$_{2}$O$_{7}$,3.4620999999999995,eV,,,,,,,
BaSr$_{4}$U$_{3}$O$_{14}$,2.0759000000000003,eV,,,,,,,
CF$_{2}$,4.9033,eV,,,,,,,
Tb(BO$_{2}$)$_{3}$,5.294700000000001,eV,,,,,,,
CoF$_{3}$,0.0,eV,,,,,,,
Zn(CO$_{2}$)$_{2}$,3.3786,eV,,,,,,,
V$_{2}$(CuO$_{2}$)$_{5}$,0.017999999999999794,eV,,,,,,,
LiTiPO$_{5}$,3.0747,eV,,,,,,,
Ba$_{2}$Ru$_{7}$O$_{18}$,0.0,eV,,,,,,,
NaPPdS$_{4}$,1.1721999999999997,eV,,,,,,,
Gd$_{3}$Se$_{4}$O$_{12}$F,2.7816,eV,,,,,,,
BaCeC$_{2}$O$_{6}$F,0.09210000000000029,eV,,,,,,,
Na$_{5}$Li(PO$_{4}$)$_{2}$,4.3383,eV,,,,,,,
Cs$_{2}$KFeF$_{6}$,4.095599999999999,eV,,,,,,,
C$_{2}$SNCl$_{2}$F$_{5}$,3.4123,eV,,,,,,,
CsInS$_{2}$,2.1704,eV,,,,,,,
Cs$_{2}$Ti(Si$_{2}$O$_{5}$)$_{3}$,3.2901999999999996,eV,,,,,,,
RbMgAs(H$_{6}$O$_{5}$)$_{2}$,4.2177,eV,,,,,,,
CaH$_{6}$C$_{2}$O$_{7}$,3.7118,eV,,,,,,,
AgPbBrO,0.5365999999999997,eV,,,,,,,
La$_{5}$Ti$_{2}$CuS$_{5}$O$_{7}$,1.3055000000000003,eV,,,,,,,
Dy(IO$_{3}$)$_{3}$,3.5241,eV,,,,,,,
Co$_{3}$C$_{2}$(SeO$_{5}$)$_{2}$,2.0915,eV,,,,,,,
Sn$_{5}$W$_{8}$O$_{23}$,1.7105999999999995,eV,,,,,,,
Ti$_{2}$Bi$_{2}$O$_{7}$,2.6108000000000002,eV,,,,,,,
Ba$_{11}$(OsO$_{6}$)$_{4}$,0.0,eV,,,,,,,
K$_{2}$ZrSi$_{2}$O$_{7}$,4.5246,eV,,,,,,,
Tl(NiS)$_{2}$,0.0,eV,,,,,,,
TiPCl$_{7}$O,2.6595,eV,,,,,,,
K$_{9}$Bi$_{5}$O$_{13}$,1.0663999999999998,eV,,,,,,,
Ba$_{3}$NaNd$_{3}$(Si$_{3}$O$_{10}$)$_{2}$,4.5793,eV,,,,,,,
HgSb$_{3}$XeF$_{17}$,2.7973,eV,,,,,,,
K$_{2}$NClO$_{3}$,4.0449,eV,,,,,,,
Nd$_{4}$S$_{3}$NCl$_{3}$,3.0831,eV,,,,,,,
K$_{3}$Nb(SO$_{4}$)$_{4}$,2.9435000000000002,eV,,,,,,,
Na$_{4}$TiAs$_{2}$O$_{9}$,3.0658,eV,,,,,,,
In$_{2}$Ag$_{3}$(PO$_{4}$)$_{3}$,0.9885000000000006,eV,,,,,,,
InBi$_{2}$S$_{4}$Cl,1.5605000000000002,eV,,,,,,,
RbMgF$_{3}$,2.2027,eV,,,,,,,
Ti$_{5}$(PO$_{5}$)$_{4}$,2.891,eV,,,,,,,
NaLiCO$_{3}$,4.4482,eV,,,,,,,
Ba$_{5}$Al$_{2}$In$_{2}$IrClO$_{13}$,0.0,eV,,,,,,,
H$_{5}$C$_{2}$ClO,5.4003,eV,,,,,,,
Ca$_{4}$P$_{6}$O$_{19}$,5.361800000000001,eV,,,,,,,
Li$_{2}$U$_{3}$P$_{2}$O$_{15}$,2.2666000000000004,eV,,,,,,,
RbZnSClO$_{4}$,4.5378,eV,,,,,,,
SeO$_{2}$,3.4255,eV,,,,,,,
K$_{2}$LaNb$_{5}$O$_{15}$,1.8326,eV,,,,,,,
SiO$_{2}$,5.6097,eV,,,,,,,
Cu$_{4}$Bi$_{4}$S$_{9}$,0.6524999999999999,eV,,,,,,,
Li$_{2}$TeO$_{3}$,3.9576,eV,,,,,,,
Cs$_{2}$Na$_{2}$B$_{10}$O$_{17}$,4.7124999999999995,eV,,,,,,,
Cu$_{3}$P$_{8}$(S$_{2}$Cl)$_{3}$,1.7878000000000003,eV,,,,,,,
Nd$_{2}$Ti$_{3}$(ClO$_{4}$)$_{2}$,2.9455,eV,,,,,,,
AgTeNO$_{5}$,2.0141,eV,,,,,,,
K$_{2}$Se$_{2}$O$_{5}$,3.5913,eV,,,,,,,
YSiNO$_{2}$,4.215400000000001,eV,,,,,,,
ZrB$_{2}$O$_{5}$,3.7946000000000004,eV,,,,,,,
UAgIO$_{6}$,1.2936999999999999,eV,,,,,,,
K$_{3}$Sm(BO$_{3}$)$_{2}$,3.4183,eV,,,,,,,
AsSe(IF$_{2}$)$_{3}$,1.3837,eV,,,,,,,
BiP$_{3}$Pb$_{4}$O$_{13}$,3.2834,eV,,,,,,,
LiCaNiF$_{6}$,2.3521,eV,,,,,,,
FeAs$_{4}$F$_{18}$,3.0698999999999996,eV,,,,,,,
BaNa$_{2}$Nd$_{2}$Si$_{4}$CO$_{15}$,4.8248,eV,,,,,,,
CuSb$_{2}$BrO$_{3}$,0.7827999999999999,eV,,,,,,,
CdSbS$_{2}$Br,1.5284999999999997,eV,,,,,,,
PrGeBO$_{5}$,3.9886999999999997,eV,,,,,,,
PS$_{3}$N$_{5}$F$_{2}$,2.5324,eV,,,,,,,
LaGaSe$_{2}$O,1.5984999999999996,eV,,,,,,,
LiScF$_{4}$,6.1137,eV,,,,,,,
AgSb(S$_{8}$F$_{3}$)$_{2}$,2.7422,eV,,,,,,,
SiO$_{2}$,3.6950000000000003,eV,,,,,,,
TiTlPO$_{5}$,2.3146,eV,,,,,,,
K$_{3}$NdSi$_{7}$O$_{17}$,4.713500000000001,eV,,,,,,,
Rb$_{2}$NaAl$_{2}$(PO$_{4}$)$_{3}$,4.6181,eV,,,,,,,
Yb$_{4}$Ge$_{3}$(O$_{3}$F$_{2}$)$_{3}$,0.0,eV,,,,,,,
KLiO,2.3803,eV,,,,,,,
K$_{6}$Se$_{2}$O$_{9}$,1.6318000000000001,eV,,,,,,,
PH$_{3}$CS$_{3}$,2.1394,eV,,,,,,,
HfB$_{2}$O$_{5}$,4.411,eV,,,,,,,
NaB(CO$_{2}$)$_{4}$,3.5338,eV,,,,,,,
Cu$_{5}$Bi$_{2}$(B$_{2}$O$_{7}$)$_{2}$,0.03869999999999996,eV,,,,,,,
LiP$_{3}$PbO$_{9}$,4.7126,eV,,,,,,,
NaNp$_{3}$F$_{13}$,0.0,eV,,,,,,,
Bi$_{6}$Rh$_{12}$O$_{29}$,0.03680000000000039,eV,,,,,,,
Sr$_{3}$CaIrO$_{6}$,0.0,eV,,,,,,,
KB$_{3}$O$_{5}$,5.225300000000001,eV,,,,,,,
Dy(IO$_{3}$)$_{3}$,3.4305999999999996,eV,,,,,,,
K$_{3}$NpO$_{2}$F$_{5}$,0.3880999999999999,eV,,,,,,,
K$_{4}$U(PO$_{5}$)$_{2}$,2.0343,eV,,,,,,,
CaZrAl$_{9}$BO$_{18}$,4.8628,eV,,,,,,,
Rb$_{2}$Mn(PS$_{3}$)$_{2}$,1.1690999999999998,eV,,,,,,,
K$_{2}$Cu(PS$_{3}$)$_{3}$,1.9435,eV,,,,,,,
KThP$_{3}$O$_{10}$,5.0528,eV,,,,,,,
KCS(OF)$_{3}$,5.2646,eV,,,,,,,
KBC$_{4}$NF$_{9}$,6.8492999999999995,eV,,,,,,,
KV$_{3}$(SeO$_{6}$)$_{2}$,2.3366000000000002,eV,,,,,,,
SrCa(CO$_{3}$)$_{2}$,4.7734000000000005,eV,,,,,,,
PNF$_{2}$,5.7734000000000005,eV,,,,,,,
Na$_{2}$S$_{2}$O$_{3}$,4.2133,eV,,,,,,,
V$_{2}$Cu$_{2}$O$_{7}$,0.0049000000000000155,eV,,,,,,,
SrLiNiF$_{6}$,2.3097999999999996,eV,,,,,,,
Cs$_{2}$CdBi$_{2}$S$_{5}$,1.9339,eV,,,,,,,
KBaYSi$_{2}$O$_{7}$,4.6816,eV,,,,,,,
PH$_{16}$C$_{6}$S$_{2}$NO$_{4}$,4.4731000000000005,eV,,,,,,,
SnS,0.3127000000000004,eV,,,,,,,
P$_{2}$H$_{17}$C$_{4}$NO$_{8}$,4.9940999999999995,eV,,,,,,,
Dy$_{2}$CuTe$_{5}$Br$_{2}$O$_{13}$,0.0,eV,,,,,,,
LiAlSiO$_{4}$,5.0525,eV,,,,,,,
Ca$_{2}$Al$_{2}$SiO$_{7}$,4.284800000000001,eV,,,,,,,
Ta$_{2}$Cd(P$_{2}$O$_{7}$)$_{3}$,3.5606999999999998,eV,,,,,,,
Ga(MoS$_{2}$)$_{4}$,0.17989999999999995,eV,,,,,,,
Cs$_{2}$RbBiF$_{6}$,4.7749,eV,,,,,,,
Co$_{2}$P$_{2}$O$_{7}$,2.9321,eV,,,,,,,
Ca(FeP)$_{2}$,0.0,eV,,,,,,,
LiV$_{2}$F$_{6}$,0.13629999999999987,eV,,,,,,,
Pr$_{2}$Ta$_{2}$Cl$_{2}$O$_{7}$,3.0505,eV,,,,,,,
BaLa$_{2}$Te$_{5}$O$_{14}$,3.2332,eV,,,,,,,
PH$_{9}$C$_{3}$S$_{2}$NClO$_{4}$,4.0576,eV,,,,,,,
Li$_{3}$Gd(BO$_{3}$)$_{2}$,3.1614,eV,,,,,,,
Li$_{6}$ZrBeF$_{12}$,6.1837,eV,,,,,,,
NaInAs$_{2}$O$_{7}$,2.3176,eV,,,,,,,
Rb$_{2}$Na$_{2}$SiO$_{4}$,3.083,eV,,,,,,,
Rb$_{2}$NaCoF$_{6}$,0.0,eV,,,,,,,
Li$_{2}$Cd(PO$_{3}$)$_{4}$,4.5942,eV,,,,,,,
FeS$_{4}$N$_{4}$Cl$_{5}$,1.0118,eV,,,,,,,
LiPr(SO$_{4}$)$_{2}$,5.3881,eV,,,,,,,
KBCF$_{6}$,7.1091999999999995,eV,,,,,,,
Hg$_{3}$(NO$_{4}$)$_{2}$,0.8579000000000001,eV,,,,,,,
Ta$_{4}$S$_{9}$Br$_{8}$,1.2976,eV,,,,,,,
Tl$_{2}$CuAsO$_{4}$,1.7057000000000002,eV,,,,,,,
KGa(Te$_{3}$O$_{7}$)$_{2}$,2.9741,eV,,,,,,,
K$_{2}$Nd(PO$_{3}$)$_{5}$,5.2482999999999995,eV,,,,,,,
GdH$_{7}$C$_{2}$SO$_{8}$,2.8774,eV,,,,,,,
UOF$_{4}$,2.5352,eV,,,,,,,
Tb$_{3}$Rb$_{2}$AlF$_{16}$,0.0,eV,,,,,,,
SbSNCl$_{5}$,1.7869,eV,,,,,,,
SiO$_{2}$,5.7101,eV,,,,,,,
SiO$_{2}$,5.2394,eV,,,,,,,
SiAg$_{8}$(SO$_{2}$)$_{2}$,0.0,eV,,,,,,,
La$_{2}$Ti$_{2}$SiO$_{9}$,2.6201,eV,,,,,,,
NdGaGe$_{2}$O$_{7}$,2.8601,eV,,,,,,,
CsZnPO$_{4}$,3.9581999999999997,eV,,,,,,,
Sm$_{2}$(SeO$_{3}$)$_{3}$,3.9039,eV,,,,,,,
PrScO$_{3}$,4.2587,eV,,,,,,,
Ba$_{3}$Cu$_{2}$(ClO$_{2}$)$_{2}$,0.16800000000000015,eV,,,,,,,
CaAlBO$_{4}$,4.6961,eV,,,,,,,
ScIO,1.9708999999999994,eV,,,,,,,
Nd$_{3}$Si$_{2}$ClO$_{8}$,4.3816,eV,,,,,,,
KHg$_{2}$S(ClO)$_{3}$,2.6843,eV,,,,,,,
Cs$_{3}$LiF$_{4}$,5.6548,eV,,,,,,,
LiAsO$_{3}$,2.9408,eV,,,,,,,
La$_{2}$Ti$_{2}$O$_{7}$,2.8423999999999996,eV,,,,,,,
Nd$_{4}$Ga$_{2}$O$_{9}$,3.6012999999999997,eV,,,,,,,
Pr$_{6}$O$_{11}$,0.0,eV,,,,,,,
Na$_{4}$Sr(SiO$_{3}$)$_{3}$,4.0944,eV,,,,,,,
Li$_{5}$La$_{3}$Ta$_{2}$O$_{12}$,3.9718999999999998,eV,,,,,,,
Na$_{5}$Ca$_{2}$Al(PO$_{4}$)$_{4}$,4.6495999999999995,eV,,,,,,,
Nd$_{3}$SiS$_{6}$Cl,2.5568000000000004,eV,,,,,,,
KY(CO)$_{8}$,2.0998,eV,,,,,,,
Na$_{3}$B(PO$_{4}$)$_{2}$,5.168,eV,,,,,,,
NaAs$_{4}$BrO$_{6}$,3.0496999999999996,eV,,,,,,,
RhC$_{2}$ClO$_{2}$,1.3044,eV,,,,,,,
K$_{2}$Nb$_{3}$Cl$_{7}$O$_{5}$,2.2949,eV,,,,,,,
Nd$_{2}$As$_{6}$Xe$_{5}$F$_{46}$,2.6927000000000003,eV,,,,,,,
Rb$_{7}$NaZn$_{2}$O$_{6}$,1.5706,eV,,,,,,,
NiF$_{2}$,4.8034,eV,,,,,,,
KGd(PO$_{3}$)$_{4}$,3.4915,eV,,,,,,,
Sm$_{2}$SO$_{2}$,2.8996000000000004,eV,,,,,,,
AgBO$_{2}$,1.2851,eV,,,,,,,
HoTeClO$_{3}$,3.8508,eV,,,,,,,
Sb$_{2}$BrF$_{17}$,0.14449999999999985,eV,,,,,,,
Cs$_{3}$PO$_{4}$,3.5722999999999994,eV,,,,,,,
K$_{6}$U$_{2}$(Cu$_{4}$S$_{5}$)$_{3}$,0.2214999999999998,eV,,,,,,,
Rb$_{3}$CrF$_{7}$,0.7833,eV,,,,,,,
Ba$_{9}$Cu$_{7}$Cl$_{2}$O$_{15}$,0,eV,,,,,,,
Li$_{5}$SbS$_{3}$I$_{2}$,2.5078999999999994,eV,,,,,,,
Na$_{3}$(CuO$_{2}$)$_{2}$,0.0,eV,,,,,,,
LaSClO$_{4}$,4.1282,eV,,,,,,,
La$_{2}$TaCl$_{3}$O$_{4}$,3.6843,eV,,,,,,,
Au$_{2}$Se$_{3}$O$_{10}$,0.9414,eV,,,,,,,
ErCuS$_{2}$,1.7449000000000003,eV,,,,,,,
SiO$_{2}$,6.106,eV,,,,,,,
Hg$_{3}$(SBr)$_{2}$,1.609,eV,,,,,,,
Na$_{2}$YC(OF)$_{3}$,5.261,eV,,,,,,,
AgBTe$_{4}$C(OF$_{4}$)$_{5}$,2.5132000000000003,eV,,,,,,,
BaTaF$_{7}$,5.691,eV,,,,,,,
H$_{9}$C$_{3}$S$_{2}$BrN$_{2}$,3.3436999999999997,eV,,,,,,,
Ag$_{5}$P(S$_{2}$Cl)$_{2}$,1.2617999999999996,eV,,,,,,,
Li$_{4}$SiO$_{4}$,4.9533,eV,,,,,,,
Ca(GaO$_{2}$)$_{2}$,2.9856,eV,,,,,,,
CsUGa(PO$_{5}$)$_{2}$,2.2695,eV,,,,,,,
La$_{8}$Ru$_{4}$O$_{21}$,0.0,eV,,,,,,,
Fe$_{2}$(SO$_{4}$)$_{3}$,2.2847999999999997,eV,,,,,,,
SiO$_{2}$,4.5099,eV,,,,,,,
NbBi(TeO$_{4}$)$_{2}$,2.5161000000000002,eV,,,,,,,
InSb$_{2}$S$_{4}$Br,1.5220000000000002,eV,,,,,,,
NaLa(CO$_{3}$)$_{2}$,3.9031,eV,,,,,,,
V$_{3}$P$_{4}$O$_{15}$,1.9622000000000002,eV,,,,,,,
AlF$_{3}$,7.5154000000000005,eV,,,,,,,
SiO$_{2}$,5.6041,eV,,,,,,,
CSNO$_{2}$F$_{3}$,4.7073,eV,,,,,,,
K$_{3}$Na$_{2}$LiTeO$_{6}$,2.2125999999999997,eV,,,,,,,
K$_{2}$Na$_{2}$IrO$_{4}$,0.33850000000000025,eV,,,,,,,
PS$_{2}$N(Cl$_{3}$O$_{2}$)$_{2}$,2.6486,eV,,,,,,,
K$_{2}$Ag$_{6}$Sn$_{3}$S$_{10}$,0.27059999999999995,eV,,,,,,,
HgCSNCl,2.4401,eV,,,,,,,
CSNCl,2.7544999999999997,eV,,,,,,,
LiBi(PdO$_{2}$)$_{2}$,0.44599999999999973,eV,,,,,,,
Sb$_{2}$Te$_{2}$O$_{9}$,2.615,eV,,,,,,,
ErCuTe$_{2}$BrO$_{6}$,0.3734000000000002,eV,,,,,,,
OsO$_{2}$F$_{3}$,0.5744,eV,,,,,,,