formula,Property Band Gap,Property Band Gap units,Property Band gap,Property Band gap units,Temperature (Property Band gap),Temperature (Property Band gap) units,Property Color,Temperature (Property Color),Temperature (Property Color) units
CdAu,0.0,eV,,,,,,,
Al$_{2}$Cd$_{3}$(SiO$_{4}$)$_{3}$,2.9522999999999997,eV,,,,,,,
Sr$_{3}$Al$_{2}$(SiO$_{4}$)$_{3}$,4.4318,eV,,,,,,,
Ba$_{3}$Al$_{2}$(SiO$_{4}$)$_{3}$,3.2933,eV,,,,,,,
TbGe,0.0,eV,,,,,,,
Ca$_{3}$Ga$_{2}$(SiO$_{4}$)$_{3}$,4.2496,eV,,,,,,,
Ca$_{3}$In$_{2}$(SiO$_{4}$)$_{3}$,3.668,eV,,,,,,,
KMg(PO$_{3}$)$_{3}$,4.9473,eV,,,,,,,
Na$_{2}$TiZn$_{2}$GeO$_{7}$,3.0984000000000003,eV,,,,,,,
CsAlO$_{2}$,4.273499999999999,eV,,,,,,,
Rh$_{3}$Se$_{8}$,0.0,eV,,,,,,,
RbAlO$_{2}$,3.3716,eV,,,,,,,
MgHg,0.0,eV,,,,,,,
K$_{2}$FeNi(CN)$_{6}$,1.5027,eV,,,,,,,
Rb$_{2}$PdF$_{6}$,2.2614,eV,,,,,,,
TlCuS$_{2}$,0.0,eV,,,,,,,
TiNi$_{3}$,0.0,eV,,,,,,,
TlCuSe$_{2}$,0.0,eV,,,,,,,
AlAgSe$_{2}$,1.1360000000000001,eV,,,,,,,
AlAgTe$_{2}$,1.0465999999999998,eV,,,,,,,
TbOF,4.9341,eV,,,,,,,
ZnAgF$_{3}$,1.589,eV,,,,,,,
Yb,0.0,eV,,,,,,,
DyN,0.05149999999999988,eV,,,,,,,
Cd(RhO$_{2}$)$_{2}$,0.8366999999999996,eV,,,,,,,
AlTlO$_{2}$,2.1963000000000004,eV,,,,,,,
NpF$_{3}$,0.0,eV,,,,,,,
TaS$_{2}$,0.0648,eV,,,,,,,
LiRhO$_{2}$,1.513,eV,,,,,,,
CuRhO$_{2}$,0.9581,eV,,,,,,,
Ti$_{3}$Sb,0.0,eV,,,,,,,
Ho$_{2}$(Ga$_{3}$Co)$_{3}$,0.0,eV,,,,,,,
La$_{2}$Fe$_{14}$C,0.0045999999999999375,eV,,,,,,,
K$_{2}$HfF$_{6}$,6.4672,eV,,,,,,,
P$_{2}$Ru,0.47499999999999964,eV,,,,,,,
K$_{2}$Pd(NO$_{2}$)$_{4}$,2.0739,eV,,,,,,,
Lu$_{3}$Al$_{5}$O$_{12}$,5.0364,eV,,,,,,,
Gd$_{3}$Al$_{5}$O$_{12}$,3.4625,eV,,,,,,,
Lu$_{3}$Ga$_{5}$O$_{12}$,2.3544,eV,,,,,,,
TiZnO$_{3}$,3.0906,eV,,,,,,,
Ca$_{2}$Sb$_{2}$O$_{7}$,0.18710000000000004,eV,,,,,,,
CaSe,2.0766999999999998,eV,,,,,,,
Ca$_{4}$Al$_{6}$SO$_{16}$,4.6683,eV,,,,,,,
SmNbO$_{4}$,3.5614000000000003,eV,,,,,,,
HoP$_{5}$O$_{14}$,5.4553,eV,,,,,,,
NbF$_{4}$,0.0,eV,,,,,,,
Sr$_{4}$Al$_{6}$SO$_{16}$,4.3934999999999995,eV,,,,,,,
K$_{2}$GeF$_{6}$,5.8902,eV,,,,,,,
Li$_{4}$UF$_{8}$,0.33740000000000014,eV,,,,,,,
SrSi$_{2}$,0.0,eV,,,,,,,
K$_{3}$NbO$_{8}$,2.5984000000000003,eV,,,,,,,
S$_{5}$N$_{6}$,2.2908,eV,,,,,,,
NdPO$_{4}$,5.3095,eV,,,,,,,
Na$_{2}$UF$_{6}$,0.0,eV,,,,,,,
K$_{2}$ThF$_{6}$,6.3857,eV,,,,,,,
K$_{3}$Cu$_{3}$As$_{2}$,1.2804,eV,,,,,,,
K$_{3}$Ag$_{3}$As$_{2}$,1.2540999999999998,eV,,,,,,,
Ba(ZnSb)$_{2}$,0.0,eV,,,,,,,
LiYSi,0.0,eV,,,,,,,
LiYGe,0.0,eV,,,,,,,
LiGdGe,0,eV,,,,,,,
Sr$_{4}$GeP$_{4}$,1.0529000000000002,eV,,,,,,,
Ba$_{4}$SiP$_{4}$,1.0893000000000002,eV,,,,,,,
Ba$_{4}$GeP$_{4}$,1.0182000000000002,eV,,,,,,,
Ga$_{8}$(Pb$_{3}$O$_{7}$)$_{3}$,2.697,eV,,,,,,,
GdPt$_{2}$,0.019000000000000128,eV,,,,,,,
TlGaO$_{2}$,2.1553,eV,,,,,,,
YbBa$_{2}$SbO$_{6}$,0,eV,,,,,,,
Ba$_{2}$YSbO$_{6}$,0.0,eV,,,,,,,
HoC$_{2}$,0.0,eV,,,,,,,
LiBO$_{2}$,7.2810999999999995,eV,,,,,,,
MgB$_{4}$O$_{7}$,5.7433000000000005,eV,,,,,,,
SrGa$_{2}$(SiO$_{4}$)$_{2}$,3.9542,eV,,,,,,,
YbBO$_{3}$,0.0,eV,,,,,,,
GePd,0.0,eV,,,,,,,
Tl$_{2}$SiSe$_{3}$,1.6797,eV,,,,,,,
Tl$_{2}$GeSe$_{3}$,1.1404999999999998,eV,,,,,,,
Cd$_{3}$TeO$_{6}$,0.4990000000000001,eV,,,,,,,
Y$_{3}$Si$_{3}$Pd$_{2}$,0.0,eV,,,,,,,
Dy$_{2}$Si$_{5}$Rh$_{3}$,0.0,eV,,,,,,,
Ba(AlS$_{2}$)$_{2}$,3.6496999999999997,eV,,,,,,,
Th(PS$_{3}$)$_{2}$,2.4371,eV,,,,,,,
TiCr$_{2}$,0.0,eV,,,,,,,
Ca$_{3}$UO$_{6}$,2.2602,eV,,,,,,,
NdAlO$_{3}$,3.023599999999999,eV,,,,,,,
Sm$_{2}$Fe$_{17}$,0.0,eV,,,,,,,
ZnAg(PO$_{3}$)$_{3}$,3.0283,eV,,,,,,,
Si$_{4}$Cu$_{15}$,0,eV,,,,,,,
Lu$_{2}$O$_{3}$,4.0206,eV,,,,,,,
RhPb$_{2}$F$_{7}$,1.7702,eV,,,,,,,
Ni$_{5}$Ge$_{3}$,0,eV,,,,,,,
Ga$_{2}$Sn$_{2}$S$_{5}$,1.6968,eV,,,,,,,
Sr$_{2}$InF$_{7}$,4.9452,eV,,,,,,,
CoP$_{2}$,0.43599999999999994,eV,,,,,,,
Sr$_{3}$P$_{4}$,0.8855000000000004,eV,,,,,,,
Ba$_{3}$P$_{4}$,0.48150000000000004,eV,,,,,,,
SmCo$_{5}$,0.0,eV,,,,,,,
Ba$_{2}$NdSbO$_{6}$,3.6649,eV,,,,,,,
YbBa$_{2}$SbO$_{6}$,0.0,eV,,,,,,,
Zr$_{6}$Ni$_{20}$P$_{13}$,0,eV,,,,,,,
Lu$_{2}$MgS$_{4}$,1.9819,eV,,,,,,,
Lu$_{2}$MnS$_{4}$,1.0720999999999998,eV,,,,,,,
Lu$_{2}$FeS$_{4}$,0.0,eV,,,,,,,
Mg(ScS$_{2}$)$_{2}$,1.5651000000000002,eV,,,,,,,
MnSi,0.0,eV,,,,,,,
KPr(SeO$_{4}$)$_{2}$,3.4507,eV,,,,,,,
Be$_{2}$B,0.0,eV,,,,,,,
Ba$_{3}$Tm$_{4}$O$_{9}$,3.2829000000000006,eV,,,,,,,
Ba$_{3}$Ho$_{4}$O$_{9}$,3.2561,eV,,,,,,,
K$_{2}$Na$_{4}$Be$_{2}$O$_{5}$,2.4329,eV,,,,,,,
La(Ni$_{2}$B)$_{6}$,0,eV,,,,,,,
Tm$_{11}$(Ni$_{10}$C)$_{6}$,0.009200000000000763,eV,,,,,,,
Pr$_{3}$GePO$_{9}$,4.5689,eV,,,,,,,
TaAlO$_{4}$,4.0663,eV,,,,,,,
K$_{2}$RbPdF$_{5}$,2.2313,eV,,,,,,,
Cs$_{2}$Ni$_{3}$Se$_{4}$,0.6301000000000001,eV,,,,,,,
Cs$_{2}$Pt$_{3}$Se$_{4}$,1.3432,eV,,,,,,,
K$_{2}$Pd$_{3}$Se$_{4}$,0.7909000000000002,eV,,,,,,,
MoS$_{2}$,1.2042000000000002,eV,,,,,,,
Rb$_{2}$Pd$_{3}$Se$_{4}$,0.9186999999999999,eV,,,,,,,
Yb$_{2}$(NiB$_{2}$)$_{3}$,0.0,eV,,,,,,,
BaZnP$_{2}$O$_{7}$,4.3393,eV,,,,,,,
SrZn$_{5}$,0.0,eV,,,,,,,
KGeSbO$_{5}$,2.5520000000000005,eV,,,,,,,
BaNaNd(GeO$_{3}$)$_{3}$,3.4575,eV,,,,,,,
Rb$_{2}$SrP$_{2}$O$_{7}$,4.7092,eV,,,,,,,
Cs$_{2}$SrP$_{2}$O$_{7}$,4.9488,eV,,,,,,,
Dy$_{3}$MnB$_{7}$,0.0,eV,,,,,,,
EuAg$_{2}$,0.0,eV,,,,,,,
Rb$_{2}$LiAsO$_{4}$,3.5526,eV,,,,,,,
Cs$_{2}$LiAsO$_{4}$,3.7302000000000004,eV,,,,,,,
AsPO$_{5}$,2.0017,eV,,,,,,,
SbAsO$_{5}$,1.7419999999999998,eV,,,,,,,
LiCd,0.0,eV,,,,,,,
Y$_{3}$B$_{7}$W,0.0,eV,,,,,,,
Na$_{3}$Rh(NO$_{2}$)$_{6}$,2.6311,eV,,,,,,,
KTaGeO$_{5}$,3.9009,eV,,,,,,,
Li$_{12}$Al$_{3}$Si$_{4}$,0.0,eV,,,,,,,
ZrIr$_{3}$,0.058099999999999596,eV,,,,,,,
CsNaSnF$_{6}$,5.143599999999999,eV,,,,,,,
KGePO$_{5}$,3.2291,eV,,,,,,,
Ba$_{3}$Ho(BO$_{3}$)$_{3}$,3.8221,eV,,,,,,,
Ba$_{3}$Tm(BO$_{3}$)$_{3}$,3.8435999999999995,eV,,,,,,,
Ba$_{3}$Lu(BO$_{3}$)$_{3}$,3.8583,eV,,,,,,,
Tb$_{3}$Al$_{5}$O$_{12}$,4.473000000000001,eV,,,,,,,
Ho$_{3}$Al$_{5}$O$_{12}$,4.6662,eV,,,,,,,
Na$_{3}$AlP$_{8}$O$_{23}$,5.2445,eV,,,,,,,
TiO$_{2}$,2.5266,eV,,,,,,,
Na$_{3}$GaP$_{8}$O$_{23}$,5.0014,eV,,,,,,,
NaAlAsO$_{4}$F,3.4604,eV,,,,,,,
Mg$_{3}$(PO$_{4}$)$_{2}$,5.106400000000001,eV,,,,,,,
CaSn(BO$_{3}$)$_{2}$,3.7009999999999996,eV,,,,,,,
LiAlSiO$_{4}$,4.8483,eV,,,,,,,
NaCaPO$_{4}$,4.914,eV,,,,,,,
Ba$_{2}$Re$_{6}$S$_{11}$,1.3384999999999998,eV,,,,,,,
Rb$_{7}$NaGe$_{8}$,1.3437999999999999,eV,,,,,,,
CsO$_{2}$,0.0,eV,,,,,,,
Tl$_{6}$TeO$_{12}$,0.0,eV,,,,,,,
K$_{4}$GeO$_{4}$,2.771,eV,,,,,,,
Pr$_{2}$Be$_{2}$GeO$_{7}$,4.2674,eV,,,,,,,
Sm$_{2}$Be$_{2}$GeO$_{7}$,4.4201999999999995,eV,,,,,,,
Er$_{2}$Be$_{2}$GeO$_{7}$,4.7188,eV,,,,,,,
Ca(AlS$_{2}$)$_{2}$,3.6112999999999995,eV,,,,,,,
Ca(GaS$_{2}$)$_{2}$,2.9147000000000003,eV,,,,,,,
Sr(AlS$_{2}$)$_{2}$,3.7211,eV,,,,,,,
Sr(GaS$_{2}$)$_{2}$,2.9638999999999998,eV,,,,,,,
KNa$_{4}$GaO$_{4}$,2.6018,eV,,,,,,,
CsK$_{4}$GaO$_{4}$,2.4160000000000004,eV,,,,,,,
Sn$_{3}$F$_{8}$,3.1589000000000005,eV,,,,,,,
Sr$_{2}$YRuO$_{6}$,0.18269999999999964,eV,,,,,,,
GaTe$_{4}$(MoSe)$_{4}$,0.0,eV,,,,,,,
NaGe$_{2}$N$_{3}$,2.3268,eV,,,,,,,
K$_{3}$GeS$_{3}$,2.4021000000000003,eV,,,,,,,
K$_{3}$GeSe$_{3}$,1.8142,eV,,,,,,,
RbYO$_{2}$,3.6085999999999996,eV,,,,,,,
K$_{5}$TlO$_{4}$,1.4847,eV,,,,,,,
Ti(TlS$_{2}$)$_{2}$,1.2976,eV,,,,,,,
Hf(PS$_{3}$)$_{2}$,2.3195,eV,,,,,,,
Ca(BIr)$_{2}$,0.0,eV,,,,,,,
Ba$_{2}$SiSe$_{4}$,2.2776,eV,,,,,,,
Ba$_{2}$SiTe$_{4}$,1.1018,eV,,,,,,,
Cu$_{4}$Ag(AsO$_{4}$)$_{3}$,0.0,eV,,,,,,,
Na$_{3}$Li$_{3}$Ti$_{2}$F$_{12}$,0.0,eV,,,,,,,
KLi$_{6}$IrO$_{6}$,0.0,eV,,,,,,,
KHg(PO$_{3}$)$_{3}$,3.0374999999999996,eV,,,,,,,
Ta$_{2}$PtSe$_{7}$,0.0,eV,,,,,,,
LiRhO$_{2}$,1.3800000000000003,eV,,,,,,,
NdGa,0.0,eV,,,,,,,
Er(BRh)$_{4}$,0.0,eV,,,,,,,
SrNb$_{6}$O$_{16}$,1.6317,eV,,,,,,,
KNaLi$_{2}$(SO$_{4}$)$_{2}$,5.2970999999999995,eV,,,,,,,
LaTa$_{7}$O$_{19}$,3.1165999999999996,eV,,,,,,,
Li$_{3}$In$_{2}$(PO$_{4}$)$_{3}$,3.6771999999999996,eV,,,,,,,
Pr$_{3}$S$_{4}$,0.0,eV,,,,,,,
Na$_{5}$InO$_{4}$,1.7202000000000002,eV,,,,,,,
Li$_{6}$ZnO$_{4}$,3.5116,eV,,,,,,,
Lu,0.02289999999999992,eV,,,,,,,
Sr(As$_{3}$Pt$_{2}$)$_{2}$,0.1305000000000005,eV,,,,,,,
Ba(As$_{3}$Pt$_{2}$)$_{2}$,0.19179999999999975,eV,,,,,,,
Er$_{3}$CrB$_{7}$,0.0,eV,,,,,,,
Hf$_{6}$Cr$_{5}$Si$_{7}$,0.00849999999999973,eV,,,,,,,
Al$_{7}$Te$_{10}$,1.3602000000000003,eV,,,,,,,
NaAlGeO$_{4}$,3.7388000000000003,eV,,,,,,,
Ni$_{8}$P$_{3}$,0,eV,,,,,,,
NaNd(GaS$_{2}$)$_{4}$,2.1048000000000004,eV,,,,,,,
Na$_{4}$Hf$_{2}$(GeO$_{4}$)$_{3}$,3.6565000000000003,eV,,,,,,,
NdSe,0.0,eV,,,,,,,
NaNb$_{3}$O$_{8}$,2.2455000000000003,eV,,,,,,,
NaTa$_{3}$O$_{8}$,2.68,eV,,,,,,,
In(PO$_{3}$)$_{3}$,4.3968,eV,,,,,,,
KNa$_{2}$Zn$_{3}$(PO$_{4}$)$_{3}$,3.9,eV,,,,,,,
Y$_{3}$FeB$_{7}$,0.0,eV,,,,,,,
CuO,0.0,eV,,,,,,,
TiCdO$_{3}$,2.1261,eV,,,,,,,
Sr$_{2}$CaUO$_{6}$,2.2051000000000003,eV,,,,,,,
Ba$_{2}$SrUO$_{6}$,2.2434,eV,,,,,,,
LaCd(BO$_{2}$)$_{5}$,4.3762,eV,,,,,,,
SmCd(BO$_{2}$)$_{5}$,4.4709,eV,,,,,,,
Ba$_{2}$Mg(PO$_{4}$)$_{2}$,4.696999999999999,eV,,,,,,,
Ca$_{2}$Ta$_{2}$O$_{6}$F,0.0,eV,,,,,,,
Ba(SiIr)$_{2}$,0.0,eV,,,,,,,
NaCa$_{3}$IrO$_{6}$,0.0,eV,,,,,,,
K$_{3}$P$_{6}$N$_{11}$,3.9959,eV,,,,,,,
BaMgF$_{4}$,6.8004999999999995,eV,,,,,,,
Rb$_{4}$Ta$_{2}$S$_{11}$,1.7127000000000001,eV,,,,,,,
Cs$_{4}$Ta$_{2}$S$_{11}$,1.8065,eV,,,,,,,
Nb$_{3}$Ir,0.0,eV,,,,,,,
CsCu$_{2}$F$_{6}$,0.0,eV,,,,,,,
ZnP$_{4}$,0.9662999999999995,eV,,,,,,,
Na$_{2}$PtSe$_{2}$,0.8645999999999998,eV,,,,,,,
Hf$_{2}$Si$_{4}$Ni$_{3}$,0.0,eV,,,,,,,
LiSbS$_{2}$,1.1843000000000004,eV,,,,,,,
V,0.0,eV,,,,,,,
RbGa$_{7}$,0.0,eV,,,,,,,
CaAl$_{2}$O$_{4}$,4.3909,eV,,,,,,,
KSbO$_{3}$,1.7858999999999998,eV,,,,,,,
Pr$_{10}$Se$_{19}$,0.3176999999999994,eV,,,,,,,
Sn$_{2}$Au,0.013100000000000556,eV,,,,,,,
Tm$_{2}$CdSe$_{4}$,0.6581000000000001,eV,,,,,,,
Y(BIr)$_{2}$,0.0,eV,,,,,,,
K$_{5}$CuAs$_{2}$,0.26129999999999987,eV,,,,,,,
K$_{5}$P$_{2}$Au,0.4874999999999998,eV,,,,,,,
NdCoGe$_{3}$,0.0,eV,,,,,,,
ZnSnO$_{3}$,1.3277999999999999,eV,,,,,,,
EuLi$_{2}$SiO$_{4}$,0.04330000000000034,eV,,,,,,,
LaIr$_{2}$,0.0,eV,,,,,,,
Y$_{3}$Si$_{3}$O$_{10}$F,5.1402,eV,,,,,,,
K$_{2}$VAgSe$_{4}$,1.0266,eV,,,,,,,
Rb$_{2}$VAgSe$_{4}$,1.0339,eV,,,,,,,
Rb$_{2}$NbAgS$_{4}$,2.1626000000000003,eV,,,,,,,
Cs$_{2}$NbAgSe$_{4}$,1.8644,eV,,,,,,,
Rb$_{2}$LiGaF$_{6}$,6.1124,eV,,,,,,,
Nd$_{5}$Ge$_{3}$,0.0,eV,,,,,,,
Er$_{2}$Te$_{3}$,0.05210000000000026,eV,,,,,,,
Li$_{2}$Mg$_{2}$(SO$_{4}$)$_{3}$,5.6251999999999995,eV,,,,,,,
NaZnPO$_{4}$,3.854,eV,,,,,,,
Tb$_{2}$Ge$_{2}$O$_{7}$,3.7452,eV,,,,,,,
Nd$_{10}$Se$_{19}$,0.29410000000000025,eV,,,,,,,
Zr$_{2}$AgPdF$_{11}$,0.5633,eV,,,,,,,
Cs$_{2}$P$_{3}$,0.8419000000000003,eV,,,,,,,
AgSb$_{2}$F$_{12}$,0.5386999999999997,eV,,,,,,,
KAsSe$_{2}$,1.5885000000000002,eV,,,,,,,
KNd(SO$_{4}$)$_{2}$,5.6613,eV,,,,,,,
Sb$_{9}$S$_{4}$F$_{39}$,1.7301,eV,,,,,,,
NdTa$_{7}$O$_{19}$,3.1661,eV,,,,,,,
Y$_{3}$Sc$_{2}$Al$_{3}$O$_{12}$,4.2714,eV,,,,,,,
P$_{4}$S$_{3}$,2.8693,eV,,,,,,,
Sr$_{2}$Ga$_{2}$S$_{5}$,2.5153,eV,,,,,,,
Y$_{5}$(Si$_{7}$Os$_{2}$)$_{2}$,0.0,eV,,,,,,,
P$_{4}$S$_{3}$,2.8816,eV,,,,,,,
NaEr(PO$_{3}$)$_{4}$,5.5405,eV,,,,,,,
CaCuP$_{2}$O$_{7}$,0.6021000000000001,eV,,,,,,,
La$_{2}$B$_{4}$Rh$_{5}$,0,eV,,,,,,,
Ho$_{2}$Fe$_{14}$B,0.0,eV,,,,,,,
Se,1.5870000000000002,eV,,,,,,,
Nb$_{12}$O$_{29}$,0,eV,,,,,,,
Li$_{6}$Y(BO$_{3}$)$_{3}$,4.7398,eV,,,,,,,
Tm$_{2}$Ge$_{2}$O$_{7}$,3.7188000000000003,eV,,,,,,,
Zr$_{3}$Al,0.0,eV,,,,,,,
Li$_{7}$PN$_{4}$,3.4744,eV,,,,,,,
Pr$_{2}$Au$_{5}$F$_{21}$,1.7724,eV,,,,,,,
Nd$_{2}$Au$_{5}$F$_{21}$,1.7722,eV,,,,,,,
ZrB$_{2}$,0.0,eV,,,,,,,
KSiSbO$_{5}$,2.8079,eV,,,,,,,
NaSrAlF$_{6}$,6.9765999999999995,eV,,,,,,,
Na$_{4}$TiO$_{4}$,3.3245999999999998,eV,,,,,,,
Fe$_{7}$W$_{6}$,0.0,eV,,,,,,,
NaSiSbO$_{5}$,2.8726000000000003,eV,,,,,,,
CsCOF$_{3}$,6.117,eV,,,,,,,
La$_{2}$CuSnO$_{6}$,0.0,eV,,,,,,,
Re$_{3}$P$_{4}$,0.0,eV,,,,,,,
Ba$_{3}$WN$_{4}$,1.9649999999999999,eV,,,,,,,
Be$_{12}$Mo,0.0,eV,,,,,,,
Li$_{7}$TaN$_{4}$,3.3394999999999997,eV,,,,,,,
ScS,0.0,eV,,,,,,,
LuAl$_{3}$(PbO$_{4}$)$_{2}$,2.9847999999999995,eV,,,,,,,
TmAu$_{2}$F$_{9}$,1.9057,eV,,,,,,,
Ca$_{3}$MnN$_{3}$,0.0,eV,,,,,,,
Ba(Ni$_{5}$P$_{3}$)$_{2}$,0.0,eV,,,,,,,
Ba$_{2}$Zn$_{3}$(AsO)$_{2}$,0.11900000000000022,eV,,,,,,,
BaSi$_{2}$,0.7812999999999999,eV,,,,,,,
Ca$_{3}$Zn$_{3}$(TeO$_{6}$)$_{2}$,2.1295999999999995,eV,,,,,,,
Na$_{6}$MnSe$_{4}$,1.1356000000000002,eV,,,,,,,
Na$_{6}$MnTe$_{4}$,1.3409,eV,,,,,,,
Ba(Cu$_{2}$P)$_{4}$,0.0,eV,,,,,,,
Ba(Cu$_{2}$As)$_{4}$,0.0,eV,,,,,,,
Tm$_{2}$S$_{3}$,2.5249,eV,,,,,,,
BP,1.2434999999999992,eV,,,,,,,
Ge(Te$_{2}$As)$_{2}$,0.3594999999999997,eV,,,,,,,
Ge$_{2}$Te$_{5}$As$_{2}$,0.40920000000000023,eV,,,,,,,
Mg$_{2}$SiPt,0.0,eV,,,,,,,
K$_{6}$CoS$_{4}$,0.4322999999999999,eV,,,,,,,
K$_{6}$CoSe$_{4}$,0.42710000000000004,eV,,,,,,,
KPt$_{2}$Se$_{3}$,0.9428000000000001,eV,,,,,,,
RbPt$_{2}$Se$_{3}$,1.0060000000000002,eV,,,,,,,
BaSi$_{6}$,0.0,eV,,,,,,,
LuAu$_{2}$F$_{9}$,1.8969999999999998,eV,,,,,,,
SnTe,0.0,eV,,,,,,,
TaTe$_{5}$Pt,0.0,eV,,,,,,,
PrP$_{5}$O$_{14}$,5.3923,eV,,,,,,,
Zr$_{2}$Al$_{3}$,0.0,eV,,,,,,,
Sr$_{2}$HoCu$_{3}$(PbO$_{4}$)$_{2}$,0.0,eV,,,,,,,
Sr$_{2}$ErCu$_{3}$(PbO$_{4}$)$_{2}$,0.0,eV,,,,,,,
Li$_{7}$NbN$_{4}$,3.3305,eV,,,,,,,
Nd$_{4}$Si$_{2}$S$_{3}$O$_{7}$,2.5812999999999997,eV,,,,,,,
Pr$_{4}$Si$_{2}$Se$_{3}$O$_{7}$,2.3921,eV,,,,,,,
Sm$_{4}$Si$_{2}$Se$_{3}$O$_{7}$,2.3907,eV,,,,,,,
Pr$_{4}$Sb$_{3}$,0.0,eV,,,,,,,
Mg$_{3}$(Ni$_{10}$P$_{3}$)$_{2}$,0.0,eV,,,,,,,
Ba$_{3}$Er$_{4}$O$_{9}$,3.2722000000000007,eV,,,,,,,
Sr$_{2}$LiIn(B$_{2}$O$_{5}$)$_{2}$,3.7657999999999996,eV,,,,,,,
Rb$_{4}$Tc$_{6}$S$_{13}$,1.0044999999999997,eV,,,,,,,
ZnNi,0.0,eV,,,,,,,
SrSi$_{4}$CuO$_{10}$,0.8594999999999997,eV,,,,,,,
Cs$_{2}$Ti(PO$_{4}$)$_{2}$,3.4477,eV,,,,,,,
CsAlF$_{4}$,6.9942,eV,,,,,,,
AlNi,0.0,eV,,,,,,,
Li$_{16}$Ta$_{2}$N$_{8}$O,3.4017,eV,,,,,,,
K$_{4}$Nb$_{8}$Si(P$_{2}$O$_{17}$)$_{2}$,1.8862999999999999,eV,,,,,,,
La$_{2}$Ta$_{3}$(SO$_{4}$)$_{2}$,0.8316999999999997,eV,,,,,,,
Ba$_{4}$Zr$_{3}$S$_{10}$,0.4663000000000004,eV,,,,,,,
Rb$_{2}$Si$_{8}$Cu$_{2}$O$_{19}$,0.5368000000000002,eV,,,,,,,
K$_{9}$Fe$_{2}$S$_{7}$,0.5147999999999999,eV,,,,,,,
Rb$_{9}$Fe$_{2}$S$_{7}$,0.5308999999999999,eV,,,,,,,
Rb$_{9}$Fe$_{2}$Se$_{7}$,0.42880000000000007,eV,,,,,,,
Si,0.6118999999999994,eV,,,,,,,
AlAu$_{4}$,0.0,eV,,,,,,,
NaZnAsO$_{4}$,2.7708,eV,,,,,,,
VB$_{2}$,0.0,eV,,,,,,,
La$_{4}$Si$_{2}$Se$_{3}$O$_{7}$,2.2305,eV,,,,,,,
CdTe,0.025100000000000122,eV,,,,,,,
Zn$_{4}$B$_{6}$SeO$_{12}$,1.8571,eV,,,,,,,
Sr$_{2}$ScF$_{7}$,6.364999999999999,eV,,,,,,,
Sc$_{2}$MnSe$_{4}$,0.0,eV,,,,,,,
SrCuP$_{2}$O$_{7}$,0.7906,eV,,,,,,,
P$_{3}$RhO$_{9}$,1.8079999999999998,eV,,,,,,,
Al$_{2}$Pb$_{3}$F$_{12}$,5.2252,eV,,,,,,,
ErIr$_{2}$,0.0,eV,,,,,,,
Rb$_{3}$AlO$_{3}$,2.6513999999999998,eV,,,,,,,
Pr$_{3}$NbO$_{7}$,2.6595999999999997,eV,,,,,,,
Pr$_{3}$TaO$_{7}$,3.4198999999999997,eV,,,,,,,
Dy$_{2}$Ru$_{2}$O$_{7}$,0.0,eV,,,,,,,
BaErCuS$_{3}$,1.1586999999999996,eV,,,,,,,
BaLaCuBO$_{5}$,0.0,eV,,,,,,,
Ba$_{3}$Sc(BO$_{3}$)$_{3}$,3.4741999999999997,eV,,,,,,,
Na$_{3}$Y(Si$_{2}$O$_{5}$)$_{3}$,4.5279,eV,,,,,,,
Al$_{21}$Pd$_{8}$,0.0,eV,,,,,,,
Si$_{4}$P$_{4}$Ru,1.4604,eV,,,,,,,
KZrPdF$_{7}$,0.6681,eV,,,,,,,
K$_{4}$SnO$_{3}$,2.1095,eV,,,,,,,
Eu$_{2}$Na$_{2}$Ti$_{3}$O$_{10}$,0,eV,,,,,,,
BaS,2.1515,eV,,,,,,,
Sr$_{2}$CaIrO$_{6}$,0.0,eV,,,,,,,
Ca$_{3}$HfSi$_{2}$O$_{9}$,4.6779,eV,,,,,,,
Ca$_{3}$ZrSi$_{2}$O$_{9}$,4.4537,eV,,,,,,,
La$_{3}$(GeRh)$_{4}$,0.0045000000000001705,eV,,,,,,,
Al$_{3}$Pt$_{5}$,0.0,eV,,,,,,,
NaBS$_{2}$,2.5622999999999996,eV,,,,,,,
KBS$_{2}$,2.7676000000000003,eV,,,,,,,
RbBS$_{2}$,2.8271,eV,,,,,,,
Nd$_{4}$Si$_{2}$Se$_{3}$O$_{7}$,2.3918,eV,,,,,,,
Al$_{2}$Pt,0.0,eV,,,,,,,
Ba$_{3}$Ta$_{5}$O$_{15}$,0.0,eV,,,,,,,
Nd(FeSb$_{3}$)$_{4}$,0.022499999999999964,eV,,,,,,,
YbBa$_{2}$(CuO$_{2}$)$_{4}$,0.0,eV,,,,,,,
Sb$_{2}$(PSe$_{3}$)$_{3}$,1.4601000000000002,eV,,,,,,,
TmMg,0.03980000000000006,eV,,,,,,,
Pr(PdO$_{2}$)$_{2}$,0.0,eV,,,,,,,
Nd(PdO$_{2}$)$_{2}$,0.0,eV,,,,,,,
Y(PdO$_{2}$)$_{2}$,0.0,eV,,,,,,,
NaZr$_{2}$TiF$_{11}$,0.0,eV,,,,,,,
GdSnF$_{7}$,4.4455,eV,,,,,,,
Sm$_{5}$Ge$_{4}$,0.0,eV,,,,,,,
Cu(IrS$_{2}$)$_{2}$,0.0,eV,,,,,,,
LiTmSiO$_{4}$,4.7791999999999994,eV,,,,,,,
Na$_{6}$FeSe$_{4}$,0.0,eV,,,,,,,
BaSmC$_{2}$O$_{6}$F,4.282,eV,,,,,,,
Sr(PIr)$_{2}$,0.44320000000000004,eV,,,,,,,
Ag$_{7}$AsS$_{6}$,0.5009999999999999,eV,,,,,,,
SiO$_{2}$,5.6346,eV,,,,,,,
Cs$_{4}$KLiGa$_{2}$F$_{12}$,6.0599,eV,,,,,,,
LaS$_{2}$,0.6312999999999995,eV,,,,,,,
Sm$_{2}$Se$_{3}$,0.3125,eV,,,,,,,
Sn$_{2}$S$_{3}$,0.7755000000000001,eV,,,,,,,
Ca$_{3}$Si$_{2}$SnO$_{9}$,3.4383999999999997,eV,,,,,,,
Tl,0.0,eV,,,,,,,
Nd$_{2}$Fe$_{17}$,0.0,eV,,,,,,,
Sr$_{3}$Y$_{2}$(GeO$_{4}$)$_{3}$,3.1359,eV,,,,,,,
KSnAsO$_{5}$,2.1357,eV,,,,,,,
RbSnAsO$_{5}$,2.0723000000000003,eV,,,,,,,
Sm(ZnP)$_{3}$,0.13140000000000063,eV,,,,,,,
Na$_{2}$Si$_{3}$O$_{7}$,4.6833,eV,,,,,,,
RbFe$_{2}$Se$_{3}$,0.0,eV,,,,,,,
RbFe$_{2}$Te$_{3}$,0.0,eV,,,,,,,
Th(AlC)$_{4}$,0.0,eV,,,,,,,
Rb$_{2}$CdSi$_{5}$O$_{12}$,4.1094,eV,,,,,,,
Co$_{9}$S$_{8}$,0.0,eV,,,,,,,
UB$_{2}$,0.0,eV,,,,,,,
NaZr$_{2}$ZnF$_{11}$,5.7288,eV,,,,,,,
ZnAg$_{2}$GeO$_{4}$,0.26269999999999993,eV,,,,,,,
K$_{2}$VCuS$_{4}$,1.2669,eV,,,,,,,
K$_{4}$Nb$_{2}$S$_{11}$,1.3941999999999999,eV,,,,,,,
ZrSi$_{2}$,0.0,eV,,,,,,,
Na$_{2}$Sm$_{2}$Ti$_{3}$O$_{10}$,2.0282999999999998,eV,,,,,,,
Cs$_{2}$CaF$_{4}$,6.088500000000001,eV,,,,,,,
Tb$_{2}$Ru$_{2}$O$_{7}$,0.0,eV,,,,,,,
Lu$_{2}$Sn$_{2}$O$_{7}$,2.6064999999999996,eV,,,,,,,
K$_{2}$MgSiO$_{4}$,4.0026,eV,,,,,,,
Ho$_{4}$C$_{7}$,0.0,eV,,,,,,,
Lu$_{4}$C$_{7}$,0.0,eV,,,,,,,
Pr$_{2}$S$_{3}$,0.7774999999999999,eV,,,,,,,
CeRh$_{3}$,0.0,eV,,,,,,,
Rb$_{2}$LiCo(CN)$_{6}$,4.2833,eV,,,,,,,
Er(CuO$_{2}$)$_{2}$,0.0,eV,,,,,,,
CaTe,1.5535999999999999,eV,,,,,,,
Pr$_{2}$Ti$_{2}$O$_{7}$,2.8979999999999997,eV,,,,,,,
Tb$_{2}$Si$_{5}$Ni$_{3}$,0.0,eV,,,,,,,
Dy$_{2}$Si$_{5}$Ni$_{3}$,0.0,eV,,,,,,,
Ho$_{2}$Si$_{5}$Ni$_{3}$,0.0,eV,,,,,,,
Nb$_{4}$GaSe$_{8}$,0.0,eV,,,,,,,
Sb$_{7}$Mo$_{3}$,0.0,eV,,,,,,,
K$_{2}$NbAgS$_{4}$,2.1653,eV,,,,,,,
K$_{2}$TaAgS$_{4}$,2.5248,eV,,,,,,,
Rb$_{2}$TaAgS$_{4}$,1.8619999999999999,eV,,,,,,,
Cs$_{2}$TaAgS$_{4}$,2.6338,eV,,,,,,,
Rb$_{2}$VCuS$_{4}$,1.2108999999999999,eV,,,,,,,
FeS$_{2}$,0.8732000000000006,eV,,,,,,,
K$_{2}$VCuSe$_{4}$,1.0028000000000001,eV,,,,,,,
Rb$_{2}$NbCuS$_{4}$,1.7958999999999998,eV,,,,,,,
Rb$_{2}$NbCuSe$_{4}$,1.6332,eV,,,,,,,
Cs$_{2}$NbCuSe$_{4}$,1.659,eV,,,,,,,
Nd$_{2}$Si$_{2}$O$_{7}$,4.8256000000000006,eV,,,,,,,
CrWN$_{2}$,0.0,eV,,,,,,,
NdPd$_{3}$S$_{4}$,0.0,eV,,,,,,,
ZrP$_{2}$,0.0,eV,,,,,,,
CrSbSe$_{3}$,0.47529999999999983,eV,,,,,,,
Tb$_{4}$C$_{5}$,0.0,eV,,,,,,,
Ho$_{4}$C$_{5}$,0.0,eV,,,,,,,
Nd$_{3}$Ga$_{5}$O$_{12}$,3.0611,eV,,,,,,,
K$_{3}$Nb$_{3}$(BO$_{6}$)$_{2}$,1.9127999999999998,eV,,,,,,,
NaCd(PO$_{3}$)$_{3}$,4.7063999999999995,eV,,,,,,,
Cu$_{2}$GeS$_{3}$,0.10489999999999977,eV,,,,,,,
Li$_{3}$AlF$_{6}$,7.688400000000001,eV,,,,,,,
Tb$_{2}$Se$_{3}$,0.3403999999999998,eV,,,,,,,
TiHg,0.0,eV,,,,,,,
Sr$_{3}$CdIrO$_{6}$,0.0,eV,,,,,,,
TbCu$_{2}$,0.0,eV,,,,,,,
NaGdTiO$_{4}$,2.2347,eV,,,,,,,
La$_{5}$Cu$_{19}$P$_{12}$,0.0,eV,,,,,,,
Sm$_{3}$ReO$_{7}$,0.0,eV,,,,,,,
LuIr,0.0,eV,,,,,,,
TmTiGe,0.0,eV,,,,,,,
Hf$_{6}$NiSb$_{2}$,0.0,eV,,,,,,,
ErSi$_{3}$Rh$_{5}$,0.0,eV,,,,,,,
TmSi$_{3}$Rh$_{5}$,0.0,eV,,,,,,,
Ca$_{4}$Al$_{6}$TeO$_{12}$,3.1457,eV,,,,,,,
Ca$_{4}$Ti$_{3}$O$_{10}$,2.5547999999999997,eV,,,,,,,
SrMgF$_{4}$,6.2322999999999995,eV,,,,,,,
Rb$_{2}$NaHoF$_{6}$,6.479699999999999,eV,,,,,,,
Rb$_{2}$NaHoF$_{6}$,6.5281,eV,,,,,,,
Lu$_{2}$C$_{3}$,0.0,eV,,,,,,,
NpNi$_{2}$,0.0,eV,,,,,,,
ScSiCu,0.0,eV,,,,,,,
Nd(BOs)$_{4}$,0.0,eV,,,,,,,
BaAs$_{3}$,0.0,eV,,,,,,,
Sm$_{3}$IrO$_{7}$,0.0,eV,,,,,,,
Nd$_{3}$Tl,0.0,eV,,,,,,,
Lu$_{2}$Cu$_{2}$O$_{5}$,0.2839999999999998,eV,,,,,,,
Sc$_{2}$Cu$_{2}$O$_{5}$,0.0,eV,,,,,,,
Sr$_{3}$As$_{4}$,0.6184000000000003,eV,,,,,,,
YS,0.0,eV,,,,,,,
Li$_{2}$GeO$_{3}$,3.568,eV,,,,,,,
TbSi$_{2}$,0.0,eV,,,,,,,
U(BRu)$_{4}$,0.0,eV,,,,,,,
GdAl$_{3}$(BO$_{3}$)$_{4}$,2.8508999999999998,eV,,,,,,,
KSb,0.9049,eV,,,,,,,
Li$_{3}$Nd$_{2}$(BO$_{3}$)$_{3}$,4.7523,eV,,,,,,,
YbLi$_{6}$(BO$_{3}$)$_{3}$,0.0,eV,,,,,,,
Yb$_{15}$C$_{19}$,0.0,eV,,,,,,,
K$_{2}$SiO$_{3}$,3.7441,eV,,,,,,,
Sb$_{9}$Se$_{4}$F$_{39}$,1.9538,eV,,,,,,,
TmP$_{5}$O$_{14}$,5.2284,eV,,,,,,,
Na$_{2}$UP$_{2}$O$_{9}$,2.1752000000000002,eV,,,,,,,
Ba$_{6}$Cu$_{11}$F$_{34}$,0.2944999999999999,eV,,,,,,,
Na$_{4}$TeO$_{5}$,0.0,eV,,,,,,,
CsBePO$_{4}$,5.1939,eV,,,,,,,
Ti$_{7}$Al$_{2}$O$_{15}$,9.999999999976694E-5,eV,,,,,,,
N$_{2}$,7.340999999999999,eV,,,,,,,
HoTl,0.0,eV,,,,,,,
KGaF$_{4}$,5.2165,eV,,,,,,,
BeSe,2.6702,eV,,,,,,,