formula,Property Band Gap,Property Band Gap units,Property Band gap,Property Band gap units,Temperature (Property Band gap),Temperature (Property Band gap) units,Property Color,Temperature (Property Color),Temperature (Property Color) units
TeCF$_{3}$,2.5038,eV,,,,,,,
KY$_{3}$F$_{10}$,6.930300000000001,eV,,,,,,,
LiDy$_{2}$Br$_{5}$,0.12020000000000053,eV,,,,,,,
NaScCl$_{4}$,3.8115,eV,,,,,,,
Zn$_{4}$As$_{2}$O$_{9}$,1.9237,eV,,,,,,,
CuMo$_{3}$I$_{7}$,1.5653000000000001,eV,,,,,,,
PI$_{2}$,1.9266999999999999,eV,,,,,,,
B$_{3}$H$_{4}$,2.315,eV,,,,,,,
Bi$_{3}$BrO$_{4}$,2.3158,eV,,,,,,,
Rb$_{4}$Cu$_{5}$Cl$_{9}$,1.7887,eV,,,,,,,
Yb(Mo$_{3}$S$_{4}$)$_{2}$,0.0,eV,,,,,,,
CuSe$_{3}$I,1.0589,eV,,,,,,,
Sc$_{4}$BCl$_{6}$,0.0,eV,,,,,,,
SmCl$_{2}$,0.0,eV,,,,,,,
Na$_{3}$TlO$_{2}$,1.8471000000000002,eV,,,,,,,
Ga$_{4}$GeO$_{8}$,2.4592,eV,,,,,,,
Rb$_{2}$IN$_{3}$,3.9553,eV,,,,,,,
Ba$_{2}$Cu$_{5}$F$_{14}$,0.0,eV,,,,,,,
Rb$_{3}$Mo$_{2}$Cl$_{9}$,0.9456,eV,,,,,,,
Rb$_{3}$Mo$_{2}$Br$_{9}$,0.9236000000000001,eV,,,,,,,
Tl$_{3}$PdCl$_{5}$,1.633,eV,,,,,,,
NaGa$_{3}$Te$_{5}$,0.9918999999999998,eV,,,,,,,
LiBeN,2.6858000000000004,eV,,,,,,,
TaCl$_{4}$,1.2222,eV,,,,,,,
CeSi$_{3}$N$_{5}$,0.24270000000000103,eV,,,,,,,
P$_{4}$(SeO$_{2}$)$_{3}$,3.4484000000000004,eV,,,,,,,
Rb$_{6}$Cl$_{4}$O,1.6658000000000002,eV,,,,,,,
Pd(Se$_{3}$Cl)$_{2}$,1.2850000000000001,eV,,,,,,,
SmB$_{2}$Rh$_{3}$,0.0,eV,,,,,,,
LiIO$_{4}$,2.0725,eV,,,,,,,
Na$_{2}$Ti$_{3}$Cl$_{8}$,0.0,eV,,,,,,,
BH$_{2}$N,5.2948,eV,,,,,,,
Cu$_{3}$SbSe$_{3}$,0.48609999999999953,eV,,,,,,,
C$_{2}$S$_{7}$Cl$_{6}$,2.8703,eV,,,,,,,
C$_{2}$(OF$_{2}$)$_{3}$,4.3593,eV,,,,,,,
Si$_{2}$N$_{2}$O,4.197399999999999,eV,,,,,,,
Rb$_{2}$WBr$_{6}$,0.0,eV,,,,,,,
MgInBr$_{3}$,2.0567,eV,,,,,,,
K$_{4}$HgAs$_{2}$,0.6976000000000001,eV,,,,,,,
Y$_{4}$BBr$_{6}$,0,eV,,,,,,,
PdCl$_{2}$,1.3705,eV,,,,,,,
Na$_{2}$ZnO$_{2}$,1.4556999999999998,eV,,,,,,,
P$_{4}$SeO$_{7}$,3.5458,eV,,,,,,,
Ca(NiGe)$_{2}$,0.0,eV,,,,,,,
HS$_{8}$N,2.6047000000000002,eV,,,,,,,
S$_{2}$I$_{2}$O$_{11}$,2.6242,eV,,,,,,,
Pd(SeBr$_{3}$)$_{2}$,1.3982,eV,,,,,,,
WBr$_{2}$,2.4687,eV,,,,,,,
Re$_{3}$Te$_{8}$Cl$_{3}$,0.8757000000000006,eV,,,,,,,
HoAs,0.0,eV,,,,,,,
Ge$_{7}$F$_{16}$,4.3804,eV,,,,,,,
Rb$_{3}$AsSe$_{16}$,0.9102999999999999,eV,,,,,,,
Al$_{2}$Te$_{3}$,1.8758,eV,,,,,,,
ClF,2.0481000000000003,eV,,,,,,,
Cs$_{3}$BiO$_{3}$,3.0476,eV,,,,,,,
CsBiO$_{2}$,2.3232,eV,,,,,,,
Zn(AsO$_{2}$)$_{2}$,3.5369,eV,,,,,,,
CdGeO$_{3}$,1.5283000000000002,eV,,,,,,,
Hg$_{2}$TeO$_{3}$,2.1078,eV,,,,,,,
CsXeF$_{7}$,3.2665999999999995,eV,,,,,,,
PHF$_{4}$,7.5482000000000005,eV,,,,,,,
PH$_{2}$F$_{3}$,6.4376,eV,,,,,,,
Bi$_{7}$RhBr$_{8}$,1.0126000000000002,eV,,,,,,,
KAuI$_{4}$,0.3003,eV,,,,,,,
LiAuI$_{4}$,0.7274000000000003,eV,,,,,,,
RbBiO$_{2}$,2.1958,eV,,,,,,,
K$_{3}$BiO$_{3}$,2.9552,eV,,,,,,,
Rb$_{3}$BiO$_{3}$,3.1029,eV,,,,,,,
BrNO$_{3}$,2.1635999999999997,eV,,,,,,,
NaSnP,0.5842,eV,,,,,,,
CsBi$_{3}$S$_{5}$,1.4278999999999997,eV,,,,,,,
Ca$_{11}$(ReO$_{6}$)$_{4}$,0.0,eV,,,,,,,
CeSiI,0.0,eV,,,,,,,
Ag$_{5}$CF$_{4}$,1.9276999999999997,eV,,,,,,,
Cl$_{2}$O,1.0529000000000002,eV,,,,,,,
BaGdCl$_{5}$,1.9440000000000002,eV,,,,,,,
Dy(SiAu)$_{2}$,0.0,eV,,,,,,,
GaTeI$_{7}$,1.8586,eV,,,,,,,
K$_{4}$Bi$_{2}$O$_{5}$,2.6155,eV,,,,,,,
P$_{2}$SeO$_{3}$,3.1407,eV,,,,,,,
Sr$_{13}$(MgSi$_{10}$)$_{2}$,0.03610000000000024,eV,,,,,,,
Si(PH$_{2}$)$_{4}$,3.9290000000000003,eV,,,,,,,
NaMgF$_{3}$,6.7529,eV,,,,,,,
EuBa$_{2}$Cl$_{7}$,0.0,eV,,,,,,,
Na$_{3}$Hg,0.0,eV,,,,,,,
WBr$_{5}$,0.0,eV,,,,,,,
MoBr$_{2}$,2.138,eV,,,,,,,
Tl$_{2}$WCl$_{6}$,0.0,eV,,,,,,,
CuW$_{3}$Cl$_{7}$,2.3724000000000003,eV,,,,,,,
Bi$_{3}$ClO$_{4}$,2.3000000000000003,eV,,,,,,,
La$_{3}$Si$_{3}$Cl$_{2}$,0.0,eV,,,,,,,
Co$_{2}$(GeS)$_{3}$,0.5346000000000002,eV,,,,,,,
La$_{6}$Si$_{7}$Br$_{3}$,0.0,eV,,,,,,,
CaSnAu,0.0,eV,,,,,,,
Tl$_{2}$MoCl$_{6}$,0.0,eV,,,,,,,
Ba$_{2}$Mg$_{3}$Si$_{4}$,0.0,eV,,,,,,,
PrSiPd,0.0,eV,,,,,,,
CsNaGe$_{2}$,1.0939999999999999,eV,,,,,,,
CuSe$_{2}$Br,0.8465,eV,,,,,,,
RuS$_{3}$Cl$_{8}$,1.8601999999999999,eV,,,,,,,
Ca$_{2}$Si$_{3}$Ag,0.0,eV,,,,,,,
Sb$_{4}$S$_{5}$Cl$_{2}$,1.8691999999999998,eV,,,,,,,
Cs$_{3}$Fe$_{2}$Cl$_{9}$,0.9037,eV,,,,,,,
Cd$_{7}$P$_{10}$,0.9704000000000002,eV,,,,,,,
CsBrO$_{4}$,3.0454,eV,,,,,,,
Sc$_{7}$NCl$_{12}$,0.0042999999999997485,eV,,,,,,,
Ta$_{9}$(CoS$_{3}$)$_{2}$,0.0,eV,,,,,,,
Li$_{2}$CrCl$_{4}$,0.5017999999999998,eV,,,,,,,
K$_{4}$BeAs$_{2}$,0.8851000000000001,eV,,,,,,,
K$_{4}$CdAs$_{2}$,0.6093999999999999,eV,,,,,,,
Pr$_{3}$(BN$_{2}$)$_{2}$,0.0,eV,,,,,,,
Nd$_{3}$(BN$_{2}$)$_{2}$,0.0,eV,,,,,,,
Ta$_{3}$(Se$_{4}$Br$_{3}$)$_{2}$,0.0,eV,,,,,,,
Yb$_{2}$CdS$_{4}$,0.0,eV,,,,,,,
Sn$_{2}$OF$_{5}$,1.9099,eV,,,,,,,
Sb$_{3}$ClO$_{4}$,2.6768000000000005,eV,,,,,,,
RePCl$_{9}$,0.8379000000000001,eV,,,,,,,
Re$_{2}$(PCl$_{8}$)$_{3}$,0.7945,eV,,,,,,,
La$_{5}$B$_{4}$N$_{9}$,1.3068,eV,,,,,,,
CeBN$_{2}$,0.0,eV,,,,,,,
Ca$_{3}$AlN$_{3}$,2.4572999999999996,eV,,,,,,,
LaBN$_{2}$,2.1727999999999996,eV,,,,,,,
NaP$_{4}$N$_{7}$,4.214,eV,,,,,,,
Re$_{3}$(SBr)$_{7}$,1.3261,eV,,,,,,,
HfSnRh,0.0,eV,,,,,,,
K$_{2}$ZrTe$_{3}$,0.5291999999999999,eV,,,,,,,
Rb$_{2}$ZrTe$_{3}$,0.49849999999999994,eV,,,,,,,
SrPr$_{2}$O$_{4}$,3.3444000000000003,eV,,,,,,,
Rb$_{2}$Zn$_{3}$O$_{4}$,1.4095,eV,,,,,,,
Ag(TeMo)$_{6}$,0.0,eV,,,,,,,
MgSiP$_{2}$,1.3728000000000007,eV,,,,,,,
B$_{5}$H$_{8}$,5.4263,eV,,,,,,,
Eu$_{2}$RbI$_{5}$,1.2759,eV,,,,,,,
Eu$_{2}$CsI$_{5}$,1.407,eV,,,,,,,
Eu$_{2}$KI$_{5}$,1.2522000000000002,eV,,,,,,,
Ca(MnBi)$_{2}$,0.0,eV,,,,,,,
CsCrCl$_{3}$,0.14200000000000035,eV,,,,,,,
V$_{3}$Sb$_{2}$,0.0,eV,,,,,,,
NiP$_{3}$W$_{2}$,0.0,eV,,,,,,,
Sr$_{2}$Bi,0.0,eV,,,,,,,
Sr$_{5}$Bi$_{3}$,0.0,eV,,,,,,,
Ba$_{5}$Bi$_{3}$,0.0,eV,,,,,,,
Ba(MgSn)$_{2}$,0.0,eV,,,,,,,
SrZnBi$_{2}$,0.0,eV,,,,,,,
Mg$_{2}$Al$_{2}$Se$_{5}$,1.0990000000000002,eV,,,,,,,
Na$_{4}$Sn$_{3}$S$_{8}$,1.6505999999999998,eV,,,,,,,
Na$_{4}$SnS$_{4}$,2.0692,eV,,,,,,,
Be$_{3}$P$_{2}$,0.14510000000000023,eV,,,,,,,
CaAl$_{2}$O$_{4}$,4.3446,eV,,,,,,,
Li$_{7}$Ge$_{2}$,0.0,eV,,,,,,,
Li$_{11}$Ge$_{6}$,0.0,eV,,,,,,,
LiGePd$_{2}$,0.0,eV,,,,,,,
V$_{4}$P$_{2}$C,0.0,eV,,,,,,,
PuGa,0.0,eV,,,,,,,
KMnBr$_{3}$,1.7869,eV,,,,,,,
K$_{4}$MnBr$_{6}$,2.3093,eV,,,,,,,
BiTePt,0.0,eV,,,,,,,
Te$_{7}$Pd$_{20}$,0.0,eV,,,,,,,
NaNO$_{2}$,2.4238,eV,,,,,,,
GeSb$_{4}$Te$_{7}$,0.26890000000000036,eV,,,,,,,
ZrBi$_{2}$,0.0,eV,,,,,,,
CuAsSe$_{2}$,0.3247,eV,,,,,,,
GeBi$_{4}$Te$_{7}$,0.5721000000000007,eV,,,,,,,
Nb$_{2}$Cr$_{4}$Si$_{5}$,0.0,eV,,,,,,,
HfAs$_{2}$,0.0,eV,,,,,,,
SmSb$_{2}$,0.0,eV,,,,,,,
Ce(MnSi)$_{2}$,0.0,eV,,,,,,,
B$_{4}$W,0.0,eV,,,,,,,
TaSe$_{3}$,0.0,eV,,,,,,,
U$_{3}$Si$_{2}$C$_{3}$,0.0011999999999989797,eV,,,,,,,
B$_{9}$H$_{11}$,2.9118,eV,,,,,,,
B$_{2}$H$_{4}$C,4.7203,eV,,,,,,,
AgBiTe$_{2}$,0.0,eV,,,,,,,
NaGe,0.6651999999999998,eV,,,,,,,
ZrNiH$_{3}$,0.0,eV,,,,,,,
FeAgTe$_{2}$,0.0,eV,,,,,,,
Si$_{5}$Pt$_{6}$,0.0,eV,,,,,,,
TlBiSe$_{2}$,0.242,eV,,,,,,,
Si$_{3}$Ir,0.0,eV,,,,,,,
Sb$_{3}$Au,0.0,eV,,,,,,,
Bi$_{2}$Te$_{2}$Se,0.5476000000000001,eV,,,,,,,
Si$_{2}$Ni$_{3}$,0.0,eV,,,,,,,
La(CoB)$_{2}$,0.0,eV,,,,,,,
TmI$_{2}$,0.0,eV,,,,,,,
AgC$_{4}$N$_{3}$,3.4675000000000002,eV,,,,,,,
Al$_{2}$B$_{2}$Ru$_{3}$,0.0,eV,,,,,,,
Dy$_{3}$AlC,0.0,eV,,,,,,,
Ho$_{3}$AlC,0.0,eV,,,,,,,
AgBiS$_{2}$,0.5000999999999998,eV,,,,,,,
Hg$_{2}$PCl$_{2}$,1.4829999999999999,eV,,,,,,,
Sr(MnSb)$_{2}$,0.0,eV,,,,,,,
Ta$_{2}$Bi$_{4}$O$_{11}$,2.7997000000000005,eV,,,,,,,
BaAg$_{8}$S$_{5}$,0.4565999999999999,eV,,,,,,,
Sr$_{2}$Ru$_{3}$O$_{10}$,0.0,eV,,,,,,,
La$_{5}$Sb$_{3}$Br,0.0,eV,,,,,,,
RbAg$_{5}$Se$_{3}$,0.0,eV,,,,,,,
KC$_{60}$,0.0,eV,,,,,,,
Ge$_{3}$Cl$_{8}$,0.0,eV,,,,,,,
Nb$_{3}$TeI$_{7}$,0.5113000000000003,eV,,,,,,,
CsSbSe$_{2}$,1.1348,eV,,,,,,,
Tl$_{2}$Te$_{2}$O$_{5}$,2.8109,eV,,,,,,,
K$_{2}$TeS$_{3}$,2.3316,eV,,,,,,,
Rb$_{2}$AgCl$_{3}$,2.9649,eV,,,,,,,
KAuBr$_{4}$,0.8103,eV,,,,,,,
K$_{4}$Sb$_{2}$O$_{3}$,1.2427,eV,,,,,,,
Nb$_{3}$ClO$_{7}$,2.0193,eV,,,,,,,
TiNb$_{3}$O$_{6}$,0.5207999999999999,eV,,,,,,,
Na$_{4}$GeO$_{4}$,2.8136,eV,,,,,,,
CS$_{3}$N,2.8222,eV,,,,,,,
BaSi$_{7}$N$_{10}$,4.113499999999999,eV,,,,,,,
Cs(SO$_{2}$)$_{2}$,2.2336,eV,,,,,,,
Rb$_{6}$Sn$_{2}$S$_{7}$,2.1193999999999997,eV,,,,,,,
Hf(Te$_{4}$Cl$_{3}$)$_{2}$,0.9085000000000001,eV,,,,,,,
Hg$_{3}$PO$_{4}$,0.7357,eV,,,,,,,
U(CrC)$_{4}$,0.0,eV,,,,,,,
Hg$_{4}$P$_{2}$O$_{7}$,1.5817,eV,,,,,,,
Tl$_{2}$Te$_{3}$,0.7326999999999995,eV,,,,,,,
NbTeCl$_{9}$,2.1696999999999997,eV,,,,,,,
TeWBr$_{9}$,0.0,eV,,,,,,,
TaTeBr$_{9}$,2.1847000000000003,eV,,,,,,,
Ag(W$_{3}$Br$_{7}$)$_{2}$,0.0,eV,,,,,,,
AgW$_{3}$Br$_{7}$,2.6908000000000003,eV,,,,,,,
LiNiN,0.0,eV,,,,,,,
Li$_{21}$Si$_{5}$,0.0,eV,,,,,,,
B$_{3}$H$_{5}$,3.8726000000000003,eV,,,,,,,
Ca$_{11}$InSb$_{9}$,0.8375000000000004,eV,,,,,,,
LaB$_{2}$Ru$_{3}$,0.0,eV,,,,,,,
Ni$_{20}$(SnB$_{2}$)$_{3}$,0.0,eV,,,,,,,
YBRh$_{3}$,0.0,eV,,,,,,,
LaSi$_{2}$Rh$_{3}$,0.0,eV,,,,,,,
Ta$_{4}$O,0.0,eV,,,,,,,
Pr$_{3}$Sb$_{5}$O$_{12}$,3.1679999999999997,eV,,,,,,,
HoClO,5.1804,eV,,,,,,,
Ta$_{2}$Mn$_{4}$Si$_{5}$,0.0011999999999998678,eV,,,,,,,
MgNiBi,0.0,eV,,,,,,,
Nb$_{10}$Ge$_{7}$,0.0,eV,,,,,,,
YAlGe,0.0,eV,,,,,,,
TlClO$_{3}$,4.423,eV,,,,,,,
Na$_{5}$SnSb$_{3}$,0.23270000000000035,eV,,,,,,,
Tl(ZnSb)$_{2}$,0.0,eV,,,,,,,
Tl$_{2}$(CdSb)$_{3}$,0.04240000000000066,eV,,,,,,,
NdSi$_{2}$Rh$_{3}$,0.0,eV,,,,,,,
Sr$_{5}$U$_{3}$O$_{14}$,2.0422000000000002,eV,,,,,,,
RbMnSe$_{2}$,0.0,eV,,,,,,,
Na$_{2}$Mn$_{2}$Se$_{3}$,0.47920000000000007,eV,,,,,,,
Cd$_{4}$P$_{2}$Cl$_{3}$,1.3805999999999998,eV,,,,,,,
TePdI,0.0,eV,,,,,,,
Ga$_{3}$Ni$_{5}$Ge$_{2}$,0.0,eV,,,,,,,
CsMgBr$_{3}$,4.0445,eV,,,,,,,
CsMgI$_{3}$,3.3159,eV,,,,,,,
NiGePt$_{2}$,0.0,eV,,,,,,,
SrLiN,0.2574000000000001,eV,,,,,,,
CaSi$_{2}$O$_{5}$,4.7791999999999994,eV,,,,,,,
RbB$_{3}$O$_{5}$,5.2118,eV,,,,,,,
PrBPd$_{3}$,0.0,eV,,,,,,,
Ca$_{10}$P$_{6}$O$_{25}$,3.1485,eV,,,,,,,
UCO$_{5}$,2.2607999999999997,eV,,,,,,,
GdBO$_{3}$,2.0483,eV,,,,,,,
RbMnBr$_{3}$,1.182,eV,,,,,,,
RbHF$_{2}$,6.6904,eV,,,,,,,
Pt$_{5}$Se$_{4}$,0.0,eV,,,,,,,
Sc$_{5}$(NiTe)$_{2}$,0.0,eV,,,,,,,
CuAgTe$_{2}$,0.0,eV,,,,,,,
Na$_{3}$(Mn$_{2}$Te$_{3}$)$_{2}$,0.0,eV,,,,,,,
MgC$_{2}$,2.562,eV,,,,,,,
YGe$_{3}$,0.0,eV,,,,,,,
Ho$_{14}$Ge$_{23}$,0.013700000000000045,eV,,,,,,,
Sr$_{4}$PdO$_{6}$,1.6164,eV,,,,,,,
Ce$_{4}$Ge$_{9}$Rh$_{13}$,0.0018000000000002458,eV,,,,,,,
Er$_{2}$Ge$_{5}$,0.0,eV,,,,,,,
Nd$_{4}$Ge$_{7}$,0.0,eV,,,,,,,
Lu$_{3}$Ni$_{2}$Ge$_{3}$,0.0,eV,,,,,,,
B$_{5}$H$_{9}$,5.9591,eV,,,,,,,
K$_{2}$Mo$_{9}$S$_{11}$,0.0,eV,,,,,,,
Zr$_{2}$(V$_{2}$Sb$_{3}$)$_{3}$,0.0,eV,,,,,,,
Ba$_{5}$Pt$_{2}$O$_{9}$,1.9294999999999995,eV,,,,,,,
Tb$_{3}$KF$_{12}$,0.0,eV,,,,,,,
Lu(ClO$_{4}$)$_{3}$,5.7305,eV,,,,,,,
ZnGeN$_{2}$,1.6965,eV,,,,,,,
U$_{3}$Te$_{5}$,0.0,eV,,,,,,,
Nd$_{4}$PdO$_{7}$,1.0861,eV,,,,,,,
CaNb$_{2}$O$_{4}$,1.2833000000000006,eV,,,,,,,
Ba$_{2}$PdF$_{6}$,1.6786999999999999,eV,,,,,,,
Ho(AlCl$_{4}$)$_{3}$,4.31,eV,,,,,,,
GdBrO,2.8895,eV,,,,,,,
TlBrO$_{3}$,3.6425,eV,,,,,,,
KBiO$_{3}$,0.49140000000000006,eV,,,,,,,
Pr$_{2}$Te$_{4}$O$_{11}$,3.2952,eV,,,,,,,
Sc(NiGe)$_{6}$,0.0,eV,,,,,,,
SiH,2.1634,eV,,,,,,,
Cr$_{3}$GeC,0.0,eV,,,,,,,
Cs$_{2}$PdI$_{6}$,0.5814999999999999,eV,,,,,,,
Hf$_{27}$P$_{16}$,0.0,eV,,,,,,,
Ca$_{4}$GeN$_{4}$,1.5929999999999995,eV,,,,,,,
Ca$_{2}$GeN$_{2}$,0.0,eV,,,,,,,
CaTeO$_{3}$,2.9347000000000003,eV,,,,,,,
Hf$_{3}$P$_{3}$Pd$_{4}$,0.0,eV,,,,,,,
Ba$_{2}$CoCl$_{6}$,0.35270000000000024,eV,,,,,,,
LaAs$_{2}$,0.5974000000000004,eV,,,,,,,
Ag$_{2}$HgO$_{2}$,0.40180000000000016,eV,,,,,,,
GaP$_{2}$I$_{9}$,1.7111999999999998,eV,,,,,,,
Ba$_{2}$Si$_{3}$Ni,0.0,eV,,,,,,,
Ca$_{3}$(AlN$_{2}$)$_{2}$,2.1954000000000002,eV,,,,,,,
Gd$_{4}$B$_{3}$C$_{4}$,0.0,eV,,,,,,,
Cu$_{7}$PSe$_{6}$,0.19819999999999993,eV,,,,,,,
La$_{3}$RuI$_{3}$,0.013099999999999667,eV,,,,,,,
K$_{2}$Si$_{2}$O$_{5}$,4.3281,eV,,,,,,,
ZnCN$_{2}$,3.4511,eV,,,,,,,
Rb$_{4}$Hg$_{5}$Te$_{13}$,0.6505000000000001,eV,,,,,,,
K$_{2}$Cu$_{2}$Te$_{5}$,0.0,eV,,,,,,,
LiAuS,1.5804,eV,,,,,,,
Ba(PN$_{2}$)$_{2}$,3.9118000000000004,eV,,,,,,,
TaCl$_{5}$,2.8236999999999997,eV,,,,,,,
Sm$_{10}$Se$_{19}$,0.27010000000000023,eV,,,,,,,
Bi$_{2}$(SeO$_{3}$)$_{3}$,3.3926999999999996,eV,,,,,,,
Cs$_{4}$SiSe$_{4}$,2.3269,eV,,,,,,,
K$_{2}$SnTe$_{3}$,0.9613,eV,,,,,,,
Na$_{3}$HoCl$_{6}$,5.2294,eV,,,,,,,
Bi$_{2}$SeO$_{5}$,2.8422,eV,,,,,,,
Rh$_{3}$S$_{4}$,0.0,eV,,,,,,,
CsReF$_{8}$,1.7142000000000002,eV,,,,,,,
Bi$_{2}$Se$_{2}$Cl$_{7}$,1.3983000000000003,eV,,,,,,,
Tb(AlCl$_{4}$)$_{3}$,4.2153,eV,,,,,,,
CsHgCl$_{3}$,1.9882,eV,,,,,,,
Tb$_{10}$B$_{2}$Br$_{15}$,0,eV,,,,,,,
Tb$_{4}$BBr$_{6}$,0.009400000000000297,eV,,,,,,,
IF$_{3}$,2.1132,eV,,,,,,,
Ag$_{3}$SnP$_{7}$,0.5080999999999998,eV,,,,,,,
HoB$_{2}$Ru$_{3}$,0.0,eV,,,,,,,
Na$_{3}$TiCl$_{6}$,0.07489999999999997,eV,,,,,,,
HgCN$_{2}$,2.4556999999999998,eV,,,,,,,
Bi$_{3}$Se$_{4}$Br,1.0642,eV,,,,,,,
K$_{2}$Mn$_{3}$S$_{4}$,0.0,eV,,,,,,,
SnBr$_{2}$,2.5388,eV,,,,,,,
AsCl$_{3}$O,2.5098,eV,,,,,,,
SnCl$_{4}$,3.5509999999999997,eV,,,,,,,
LiAuC$_{2}$,1.5321,eV,,,,,,,
Li$_{2}$MgTl,0.0,eV,,,,,,,
Ir(Cl$_{2}$F$_{3}$)$_{2}$,0.0,eV,,,,,,,
Na$_{4}$SeO$_{5}$,1.3349000000000002,eV,,,,,,,
Rb$_{2}$CdCl$_{4}$,3.1706,eV,,,,,,,
K$_{2}$ReH$_{9}$,5.2166999999999994,eV,,,,,,,
Re$_{2}$PCl$_{13}$,0.8083,eV,,,,,,,
Li$_{2}$GaRh,0.0,eV,,,,,,,
Sm$_{2}$SCl$_{4}$,3.5036999999999994,eV,,,,,,,
Ca$_{3}$SiBr$_{2}$,0.0,eV,,,,,,,
CsPdCl$_{3}$,1.4655,eV,,,,,,,
Rb$_{3}$PbCl$_{5}$,4.2828,eV,,,,,,,
ZnNi$_{10}$P$_{3}$,0,eV,,,,,,,
Ni$_{10}$SnP$_{3}$,0,eV,,,,,,,
Pr(ClO$_{4}$)$_{3}$,4.8822,eV,,,,,,,
Er(ClO$_{4}$)$_{3}$,5.0118,eV,,,,,,,
Tl$_{2}$PdCl$_{4}$,1.1509,eV,,,,,,,
Th$_{2}$AuF$_{11}$,2.3115,eV,,,,,,,
LiSb$_{3}$O$_{8}$,0.9743999999999993,eV,,,,,,,
Rb$_{3}$Bi$_{2}$I$_{9}$,2.4194,eV,,,,,,,
Y$_{2}$B$_{3}$C$_{2}$,0.0,eV,,,,,,,
Tl$_{2}$Au$_{4}$S$_{3}$,1.1304999999999996,eV,,,,,,,
Mo$_{9}$Se$_{11}$,0.0,eV,,,,,,,
TmAgSn,0.0,eV,,,,,,,
NiGe$_{2}$,0.018199999999999328,eV,,,,,,,
Rb$_{2}$Cd$_{3}$Te$_{4}$,1.4415,eV,,,,,,,
TlTeF$_{5}$,4.4514,eV,,,,,,,
SbXe$_{2}$F$_{9}$,1.9809999999999999,eV,,,,,,,
Mn$_{9}$(NbGe$_{4}$)$_{2}$,0.021100000000000563,eV,,,,,,,
Mn$_{4}$Nb$_{7}$Ge$_{8}$,0.010699999999999932,eV,,,,,,,
Te$_{4}$Pd$_{9}$,0.004400000000000404,eV,,,,,,,
Sr$_{11}$(ReO$_{6}$)$_{4}$,0.0042999999999997485,eV,,,,,,,
Ba$_{4}$I$_{6}$O,3.9787999999999997,eV,,,,,,,
Cs$_{2}$UO$_{4}$,1.8211,eV,,,,,,,
Sr$_{4}$I$_{6}$O,3.5856,eV,,,,,,,
Ba$_{3}$Sb$_{2}$O,0.3329,eV,,,,,,,
Sb$_{2}$MoSe,0.0,eV,,,,,,,
Er$_{7}$(NiTe)$_{2}$,0.0,eV,,,,,,,
Ca$_{5}$(CuO$_{2}$)$_{6}$,0.02870000000000017,eV,,,,,,,
Rb$_{5}$Au$_{3}$O$_{2}$,0.8051000000000001,eV,,,,,,,
Sb$_{5}$PO$_{10}$,3.1373,eV,,,,,,,
Nb$_{3}$Cl$_{5}$O$_{2}$,0.8975,eV,,,,,,,
Pb$_{7}$(BrF$_{6}$)$_{2}$,4.0573,eV,,,,,,,
Na$_{3}$Li$_{3}$N$_{2}$,0.0,eV,,,,,,,
NaLi$_{5}$N$_{2}$,2.6507,eV,,,,,,,
Na$_{5}$LiN$_{2}$,0.18620000000000003,eV,,,,,,,
Zr$_{5}$P$_{7}$Pd$_{9}$,0.04039999999999999,eV,,,,,,,
Hf$_{5}$P$_{7}$Pd$_{9}$,0.01890000000000036,eV,,,,,,,
Zr$_{6}$Ag$_{7}$F$_{31}$,2.799,eV,,,,,,,
Rb$_{2}$PdI$_{6}$,1.1296,eV,,,,,,,
Ho$_{5}$(ReO$_{6}$)$_{2}$,0.0,eV,,,,,,,
Ba(GaSb)$_{2}$,0.027800000000000047,eV,,,,,,,
Nb$_{9}$As$_{7}$Pd,0,eV,,,,,,,
Co$_{2}$(GeTe)$_{3}$,0.7490000000000006,eV,,,,,,,
SbClF$_{10}$,2.3471,eV,,,,,,,
Sc$_{2}$C,0.0,eV,,,,,,,
H$_{5}$NO$_{5}$,3.5445,eV,,,,,,,
IO$_{2}$F,2.8952,eV,,,,,,,
K$_{3}$PSe$_{16}$,1.0901,eV,,,,,,,
La$_{2}$Fe$_{2}$S$_{5}$,0.0,eV,,,,,,,
Nb$_{3}$Cl$_{8}$,0.1459999999999999,eV,,,,,,,
Na$_{2}$B$_{29}$,0.1604000000000001,eV,,,,,,,
Tb$_{16}$B$_{4}$Br$_{23}$,0.008199999999999985,eV,,,,,,,
Hg$_{3}$(SeI)$_{2}$,1.1701000000000001,eV,,,,,,,
Hg$_{3}$(SI)$_{2}$,1.3129,eV,,,,,,,
Zr$_{5}$Te$_{6}$,0.00509999999999966,eV,,,,,,,
Hg$_{7}$(PO$_{5}$)$_{2}$,1.4983000000000002,eV,,,,,,,
TlBSe$_{3}$,0.9044000000000003,eV,,,,,,,
Ca(C$_{2}$N$_{3}$)$_{2}$,4.552300000000001,eV,,,,,,,
Sr(C$_{2}$N$_{3}$)$_{2}$,4.6674,eV,,,,,,,
La$_{3}$(TaN$_{3}$)$_{2}$,0,eV,,,,,,,
NOF,3.1441,eV,,,,,,,
NbSeCl$_{9}$,2.0713,eV,,,,,,,
ThB$_{2}$C,0.0,eV,,,,,,,
Cs$_{3}$Sb$_{5}$O$_{14}$,0.9142999999999999,eV,,,,,,,
Nd$_{2}$P$_{3}$Au,0.0,eV,,,,,,,
SrN,0.0,eV,,,,,,,
RbLi$_{7}$Ge$_{8}$,0.01869999999999994,eV,,,,,,,
K$_{3}$BS$_{3}$,2.7148,eV,,,,,,,
Na$_{3}$BS$_{3}$,2.5782,eV,,,,,,,
Rb$_{3}$BS$_{3}$,2.5462000000000002,eV,,,,,,,
Sr$_{5}$Al$_{2}$F$_{16}$,6.9343,eV,,,,,,,
Nb$_{3}$B$_{3}$C,0.0,eV,,,,,,,
BaTiO$_{3}$,1.6662999999999997,eV,,,,,,,
Nb$_{4}$B$_{3}$C$_{2}$,0,eV,,,,,,,
Nb$_{7}$(BC)$_{4}$,0,eV,,,,,,,
Nb$_{7}$(B$_{2}$C)$_{3}$,0,eV,,,,,,,
Cs$_{6}$Cl$_{4}$O,1.984,eV,,,,,,,
LiNb$_{6}$Cl$_{19}$,0.7273000000000001,eV,,,,,,,
La$_{2}$Al$_{2}$I,0.0,eV,,,,,,,
La$_{3}$(AlI)$_{2}$,0,eV,,,,,,,
CsPd$_{2}$Cl$_{5}$,1.3553,eV,,,,,,,
Sm$_{3}$(SiIr)$_{2}$,0.0,eV,,,,,,,
La$_{3}$B$_{2}$N$_{5}$,1.1710000000000012,eV,,,,,,,
Bi$_{2}$Te$_{4}$Cl$_{7}$,1.333,eV,,,,,,,
AsPbF$_{7}$,4.0652,eV,,,,,,,
TaAgF$_{6}$,3.5549999999999997,eV,,,,,,,
La$_{3}$C$_{2}$Br$_{3}$,0.036900000000000155,eV,,,,,,,
La$_{3}$SiBr$_{3}$,0,eV,,,,,,,
La$_{3}$PI$_{3}$,0.0,eV,,,,,,,
La$_{3}$AsI$_{3}$,0.0,eV,,,,,,,
La$_{3}$SbI$_{3}$,0.0,eV,,,,,,,
YbPt$_{3}$,0.0,eV,,,,,,,
Cr$_{3}$GaN,0.0,eV,,,,,,,
Ba$_{16}$Nb$_{5}$N$_{19}$,1.6979000000000002,eV,,,,,,,
Sc(IO$_{3}$)$_{3}$,3.8452,eV,,,,,,,
AuSO$_{4}$,1.65,eV,,,,,,,
Rb$_{4}$Br$_{2}$O,0.5864,eV,,,,,,,
Rb$_{6}$Br$_{4}$O,1.5308000000000002,eV,,,,,,,
KrF$_{2}$,2.9048000000000003,eV,,,,,,,
AsKrF$_{7}$,2.4572000000000003,eV,,,,,,,
SbKrF$_{7}$,2.3799,eV,,,,,,,
BiKrF$_{7}$,2.3578,eV,,,,,,,
SbKr$_{3}$F$_{11}$,1.3064,eV,,,,,,,
As$_{2}$Kr$_{3}$F$_{16}$,1.149,eV,,,,,,,
Rb$_{2}$ZnI$_{4}$,3.11,eV,,,,,,,
ZrCu$_{2}$Te$_{3}$,0.00790000000000024,eV,,,,,,,
K$_{5}$Sb$_{4}$,0.0,eV,,,,,,,
Eu(AlCl$_{4}$)$_{2}$,1.6803,eV,,,,,,,
Ba(AlCl$_{4}$)$_{2}$,5.3835999999999995,eV,,,,,,,
Sr(AlCl$_{4}$)$_{2}$,5.4902,eV,,,,,,,
DyBr$_{2}$,0.0,eV,,,,,,,
Sr$_{3}$Te$_{4}$O$_{11}$,3.1807999999999996,eV,,,,,,,
RbCrCl$_{3}$,0.49539999999999984,eV,,,,,,,
YSi$_{2}$Rh$_{3}$,0,eV,,,,,,,
Ga$_{3}$Ni$_{13}$Ge$_{6}$,0.00509999999999966,eV,,,,,,,
Zn$_{6}$Ni$_{7}$Ge$_{2}$,0.05550000000000033,eV,,,,,,,
CaI$_{2}$,3.8971,eV,,,,,,,
TlIO$_{4}$,2.0027999999999997,eV,,,,,,,
CoBr$_{2}$,0.06319999999999992,eV,,,,,,,
MgBr$_{2}$,4.4707,eV,,,,,,,
AgIO$_{4}$,0.3296999999999999,eV,,,,,,,
Na$_{2}$Al$_{2}$Sb$_{3}$,0.7215999999999996,eV,,,,,,,
BaCdSb$_{2}$,0.24979999999999958,eV,,,,,,,
RbBiS$_{2}$,1.3437999999999999,eV,,,,,,,
Li$_{2}$CeGe,0.0037000000000002586,eV,,,,,,,
CeSi$_{2}$Ru$_{3}$,0,eV,,,,,,,
Fe$_{2}$CoGe,0.0,eV,,,,,,,
CoGe$_{2}$,0.0,eV,,,,,,,
Sn$_{2}$Mo,0.0,eV,,,,,,,
Ba(GeRu)$_{2}$,0.0,eV,,,,,,,
Si$_{3}$CCl$_{7}$,4.005,eV,,,,,,,
Ni$_{6}$Mo$_{6}$C,0,eV,,,,,,,
NaCN,5.0374,eV,,,,,,,
CS$_{2}$N,2.982,eV,,,,,,,
Rb$_{3}$BrO,0.40979999999999994,eV,,,,,,,
CsCaBr$_{3}$,4.3924,eV,,,,,,,
LiCN,5.5313,eV,,,,,,,
TlSbO$_{3}$,2.4341,eV,,,,,,,
Tl$_{2}$(SbO$_{3}$)$_{3}$,0,eV,,,,,,,
P$_{2}$Pd$_{3}$S$_{8}$,1.5779,eV,,,,,,,
Sn$_{5}$(BRh$_{3}$)$_{2}$,0.0,eV,,,,,,,
Sn$_{4}$BRh$_{6}$,0,eV,,,,,,,
Cs$_{2}$PtBr$_{6}$,1.433,eV,,,,,,,
C$_{2}$S$_{9}$N$_{2}$,2.5805,eV,,,,,,,
Sb$_{7}$Pd$_{20}$,0.09269999999999978,eV,,,,,,,
Te$_{3}$Pd$_{10}$,0.047099999999999476,eV,,,,,,,
CIN,4.3987,eV,,,,,,,
CuNi$_{2}$Sb,0.0,eV,,,,,,,
U$_{3}$Cu$_{2}$Sb$_{3}$,0.005799999999998917,eV,,,,,,,
La(FeSb$_{3}$)$_{4}$,0.16019999999999968,eV,,,,,,,
Ti$_{4}$FeS$_{8}$,0,eV,,,,,,,
ScFeSi$_{2}$,0,eV,,,,,,,
K$_{2}$GaSb$_{2}$,1.1041999999999998,eV,,,,,,,
C$_{3}$S$_{8}$,1.7321,eV,,,,,,,
LiMg$_{2}$Ge,0.0,eV,,,,,,,
Li$_{2}$GePd,0.03400000000000025,eV,,,,,,,
Ni$_{19}$Ge$_{12}$,0.016599999999999504,eV,,,,,,,
TlBi,0.0,eV,,,,,,,
ThZr$_{2}$H$_{7}$,0.0,eV,,,,,,,
GeCl$_{4}$,4.1254,eV,,,,,,,
Ba$_{3}$P$_{4}$O$_{13}$,5.1231,eV,,,,,,,
CsH$_{3}$O$_{2}$,4.7128,eV,,,,,,,
Rb$_{2}$BeF$_{4}$,6.6663,eV,,,,,,,
MgB$_{9}$N,1.6752999999999991,eV,,,,,,,
TiCl$_{4}$,3.4576,eV,,,,,,,
H$_{2}$CN$_{2}$,4.709899999999999,eV,,,,,,,
Be$_{2}$Te$_{7}$Cl$_{6}$,1.2797,eV,,,,,,,
Bi$_{2}$Te$_{7}$Cl$_{8}$,0.4392999999999998,eV,,,,,,,
PdSCl,1.1314,eV,,,,,,,
TbRb$_{2}$F$_{6}$,0.02279999999999971,eV,,,,,,,
Li$_{2}$B$_{2}$Se$_{5}$,1.6310999999999996,eV,,,,,,,
Ba$_{4}$Si$_{3}$Br$_{2}$,0.3695000000000004,eV,,,,,,,
BaPdCl$_{4}$,1.2578,eV,,,,,,,
AuF$_{5}$,0.7890000000000001,eV,,,,,,,
Ba$_{2}$B$_{4}$Se$_{13}$,1.3581000000000003,eV,,,,,,,
AsCl$_{5}$,1.4376,eV,,,,,,,
RbNb$_{4}$Cl$_{11}$,0.44499999999999984,eV,,,,,,,
P$_{2}$PbAu$_{2}$,0.0,eV,,,,,,,
Sb$_{2}$(AuF$_{6}$)$_{3}$,0.16720000000000002,eV,,,,,,,
Th(GeRh)$_{2}$,0,eV,,,,,,,
SrLaI$_{4}$,0.0,eV,,,,,,,
BaLaI$_{4}$,0.0,eV,,,,,,,