formula,Property Band Gap,Property Band Gap units,Property Band gap,Property Band gap units,Temperature (Property Band gap),Temperature (Property Band gap) units,Property Color,Temperature (Property Color),Temperature (Property Color) units
LiMgAl$_{3}$(SeO$_{4}$)$_{6}$,2.9522999999999997,eV,,,,,,,
Ba$_{6}$CdAg$_{2}$(SnS$_{4}$)$_{4}$,1.7026999999999997,eV,,,,,,,
Na$_{3}$Zr$_{2}$Si$_{2}$PO$_{12}$,0.0,eV,,,,,,,
Na$_{4}$UO$_{5}$,2.1446,eV,,,,,,,
Sr$_{3}$La$_{21}$Zn$_{2}$(Cu$_{5}$O$_{24}$)$_{2}$,0.05939999999999923,eV,,,,,,,
Na$_{3}$Mg$_{3}$In(SO$_{4}$)$_{6}$,3.7996,eV,,,,,,,
K$_{2}$YHf(PO$_{4}$)$_{3}$,5.191000000000001,eV,,,,,,,
K$_{2}$YZr(PO$_{4}$)$_{3}$,4.564,eV,,,,,,,
K$_{6}$LiFe$_{24}$S$_{26}$Cl,0.0,eV,,,,,,,
YZr$_{5}$Si$_{5}$PO$_{24}$,3.9082,eV,,,,,,,
Li$_{6}$Nd$_{6}$Sb(TeO$_{8}$)$_{3}$,0.0,eV,,,,,,,
CdPS$_{3}$,1.7450999999999999,eV,,,,,,,
Na$_{2}$SrNd$_{2}$Ti$_{5}$O$_{15}$,2.2938000000000005,eV,,,,,,,
YAl$_{3}$(Si$_{5}$N$_{8}$)$_{3}$,3.0496999999999996,eV,,,,,,,
Ba$_{5}$Sr$_{2}$Nd$_{8}$(CuO$_{5}$)$_{5}$,0.23109999999999964,eV,,,,,,,
LaAlSi$_{2}$,0.0,eV,,,,,,,
AlPO$_{4}$,5.6126000000000005,eV,,,,,,,
YbSbAu,0.0,eV,,,,,,,
U$_{2}$PdS$_{4}$,0.0,eV,,,,,,,
Sn(Mo$_{3}$S$_{4}$)$_{2}$,0.0,eV,,,,,,,
ZnSeO$_{3}$,3.9227,eV,,,,,,,
CsNaTe,1.9689,eV,,,,,,,
B$_{13}$N$_{2}$,0.0,eV,,,,,,,
GaAgS$_{2}$,0.9598,eV,,,,,,,
Lu(SiCu)$_{2}$,0.0,eV,,,,,,,
KAlF$_{4}$,6.786300000000001,eV,,,,,,,
Na$_{2}$Al$_{17}$Si$_{11}$B$_{7}$(H$_{3}$O$_{31}$)$_{2}$,4.069699999999999,eV,,,,,,,
NaCa$_{2}$ScZn$_{2}$(SiO$_{3}$)$_{6}$,4.2934,eV,,,,,,,
Ca$_{18}$Nd$_{2}$Si$_{3}$P$_{9}$(O$_{16}$F)$_{3}$,4.3443000000000005,eV,,,,,,,
KCa$_{5}$Mg$_{5}$Al(SiO$_{3}$)$_{12}$,4.8377,eV,,,,,,,
MgCO$_{3}$,4.9603,eV,,,,,,,
Ca$_{10}$Ta$_{3}$Ti$_{4}$Al$_{3}$(SiO$_{5}$)$_{10}$,2.9726,eV,,,,,,,
NaCa$_{9}$Ti$_{9}$Nb(SiO$_{5}$)$_{10}$,2.9669000000000003,eV,,,,,,,
CaMg$_{2}$TiAl$_{2}$SiO$_{10}$,2.3024000000000004,eV,,,,,,,
Na$_{4}$Ga$_{3}$Si$_{3}$B(HO$_{3}$)$_{4}$,4.4205,eV,,,,,,,
Sr$_{10}$P$_{6}$BrO$_{24}$F,4.8553,eV,,,,,,,
Sr$_{3}$Pr$_{10}$Al$_{12}$Si$_{18}$(N$_{2}$O)$_{18}$,3.0028000000000006,eV,,,,,,,
Ca$_{4}$Ti$_{3}$AlSi$_{4}$O$_{19}$F,3.0534000000000003,eV,,,,,,,
Al$_{13}$Si$_{5}$H$_{14}$Cl(O$_{17}$F$_{2}$)$_{2}$,3.8563,eV,,,,,,,
Fe$_{4}$N,0.0,eV,,,,,,,
Zn(GaS$_{2}$)$_{2}$,2.2696000000000005,eV,,,,,,,
Zn$_{2}$P$_{3}$H$_{19}$C$_{4}$(NO$_{6}$)$_{2}$,4.8313999999999995,eV,,,,,,,
Na$_{4}$Al$_{3}$Ge$_{3}$B(HO$_{3}$)$_{4}$,4.3746,eV,,,,,,,
Tb(GePd)$_{2}$,0,eV,,,,,,,
ErCo$_{3}$B$_{2}$,0.0,eV,,,,,,,
Er$_{3}$(Si$_{3}$Ru)$_{4}$,0.0,eV,,,,,,,
ThZn$_{4}$,0.0,eV,,,,,,,
Ba$_{3}$Nb$_{16}$O$_{23}$,0.0,eV,,,,,,,
Hg$_{2}$TeO$_{5}$,0.5273999999999996,eV,,,,,,,
DySiCu,0.0,eV,,,,,,,
K$_{5}$SnSb$_{3}$,0.5167000000000002,eV,,,,,,,
Li$_{2}$GeF$_{6}$,6.0486,eV,,,,,,,
PrB$_{2}$Rh$_{3}$,0.0,eV,,,,,,,
ErCo$_{2}$,0.0,eV,,,,,,,
ErNbO$_{4}$,3.5276,eV,,,,,,,
RbFeS$_{2}$,0.0,eV,,,,,,,
Y$_{2}$Ti$_{2}$O$_{7}$,2.718,eV,,,,,,,
Y$_{4}$Ga$_{12}$Pd,0.0,eV,,,,,,,
YTaO$_{4}$,4.0314,eV,,,,,,,
CaAg,0.0,eV,,,,,,,
Ca$_{4}$P$_{2}$O,1.2714000000000003,eV,,,,,,,
U$_{2}$PN$_{2}$,0.0,eV,,,,,,,
Sc$_{6}$Si$_{7}$Ni$_{16}$,0,eV,,,,,,,
NdNiC$_{2}$,0,eV,,,,,,,
TbSnPd$_{2}$,0.0,eV,,,,,,,
Er(SiRh)$_{2}$,0.0,eV,,,,,,,
YNbO$_{4}$,3.5446,eV,,,,,,,
Zn(SbO$_{2}$)$_{2}$,2.7208000000000006,eV,,,,,,,
Ga$_{2}$S$_{3}$,1.6980999999999997,eV,,,,,,,
Mg$_{2}$SiO$_{4}$,4.497299999999999,eV,,,,,,,
Mg$_{2}$SiO$_{4}$,3.5073000000000003,eV,,,,,,,
LaSF,1.4811999999999994,eV,,,,,,,
MnCo$_{2}$Sb,0.0,eV,,,,,,,
Tb(FeSi)$_{2}$,0.0,eV,,,,,,,
ScFe$_{2}$,0.0,eV,,,,,,,
Th(CrSi)$_{2}$,0.0,eV,,,,,,,
CoO$_{2}$,0.3111999999999999,eV,,,,,,,
Li(WO$_{2}$)$_{2}$,0.0,eV,,,,,,,
LiPWCO$_{7}$,2.8866,eV,,,,,,,
MnPO$_{4}$,0.46009999999999995,eV,,,,,,,
Li$_{2}$Ni(PO$_{3}$)$_{5}$,0.0,eV,,,,,,,
LiV$_{2}$P$_{5}$O$_{16}$,2.0575,eV,,,,,,,
LiFe$_{4}$(PO$_{4}$)$_{3}$,2.0547000000000004,eV,,,,,,,
LiMn$_{2}$P$_{3}$O$_{11}$,0.9959000000000002,eV,,,,,,,
MnPO$_{4}$,0.5879999999999999,eV,,,,,,,
Li$_{5}$Mn$_{9}$(P$_{2}$O$_{7}$)$_{8}$,0.46029999999999993,eV,,,,,,,
Mo$_{2}$(PO$_{4}$)$_{3}$,0.0,eV,,,,,,,
Li$_{2}$FeP$_{2}$O$_{7}$,4.1734,eV,,,,,,,
LiVP$_{2}$O$_{7}$,2.0199000000000003,eV,,,,,,,
Li$_{4}$Mn$_{5}$(P$_{3}$O$_{11}$)$_{2}$,3.3135,eV,,,,,,,
LiMnP$_{2}$O$_{7}$,0.9387000000000001,eV,,,,,,,
LiMo(PO$_{4}$)$_{2}$,2.4819,eV,,,,,,,
Mn$_{5}$(P$_{2}$O$_{7}$)$_{4}$,0.6583,eV,,,,,,,
Li$_{2}$Mn(PO$_{3}$)$_{4}$,5.0535000000000005,eV,,,,,,,
Fe$_{3}$P$_{3}$O$_{11}$,1.5595,eV,,,,,,,
Fe(PO$_{3}$)$_{4}$,0.6089,eV,,,,,,,
Li$_{2}$Ni(PO$_{4}$)$_{2}$,0.0,eV,,,,,,,
LiCo(PO$_{3}$)$_{4}$,0.9577000000000001,eV,,,,,,,
LiMo(PO$_{4}$)$_{2}$,1.3646999999999998,eV,,,,,,,
LiMnP$_{2}$O$_{7}$,0.0,eV,,,,,,,
MnP$_{2}$O$_{7}$,0.0,eV,,,,,,,
Fe(PO$_{3}$)$_{4}$,0.0,eV,,,,,,,
LiFe(PO$_{3}$)$_{4}$,2.6117,eV,,,,,,,
Fe(PO$_{3}$)$_{4}$,0.0809,eV,,,,,,,
Li$_{4}$MoP$_{2}$O$_{9}$,1.6212000000000002,eV,,,,,,,
Li$_{3}$MoP$_{2}$O$_{9}$,1.4546999999999999,eV,,,,,,,
Fe(PO$_{3}$)$_{4}$,2.6562,eV,,,,,,,
LiNi(PO$_{3}$)$_{4}$,0.9114,eV,,,,,,,
Ni(PO$_{3}$)$_{4}$,0.0018999999999999573,eV,,,,,,,
Mo$_{2}$(PO$_{4}$)$_{3}$,1.1841000000000002,eV,,,,,,,
LiMo(PO$_{4}$)$_{2}$,3.0290999999999997,eV,,,,,,,
NiP$_{2}$O$_{7}$,0.011299999999999866,eV,,,,,,,
CoPO$_{4}$,1.0980999999999999,eV,,,,,,,
Li$_{2}$FeP$_{2}$O$_{7}$,4.1357,eV,,,,,,,
Sr$_{2}$B$_{2}$O$_{5}$,4.283,eV,,,,,,,
LiMnPO$_{4}$,3.8432999999999997,eV,,,,,,,
LiFePO$_{4}$,3.5310000000000006,eV,,,,,,,
FePO$_{4}$,2.7434000000000003,eV,,,,,,,
LiFe(PO$_{3}$)$_{3}$,4.001799999999999,eV,,,,,,,
Li$_{3}$Cr$_{2}$(PO$_{4}$)$_{3}$,3.0299000000000005,eV,,,,,,,
LiFe$_{2}$(PO$_{4}$)$_{3}$,0.00739999999999999,eV,,,,,,,
MnPO$_{4}$,0.36790000000000006,eV,,,,,,,
LiMn$_{6}$PO$_{12}$,1.1095000000000002,eV,,,,,,,
LiFePO$_{4}$,3.4966999999999997,eV,,,,,,,
LiMnPO$_{4}$,3.5916999999999994,eV,,,,,,,
Li$_{3}$Cr$_{2}$(PO$_{4}$)$_{3}$,2.7001,eV,,,,,,,
Li$_{2}$CoP$_{2}$O$_{7}$,2.6714,eV,,,,,,,
LiCoP$_{2}$O$_{7}$,0.6818,eV,,,,,,,
Li$_{2}$Mn(PO$_{3}$)$_{4}$,4.916399999999999,eV,,,,,,,
LiMoPO$_{5}$,1.3988,eV,,,,,,,
MoPO$_{5}$,1.1297,eV,,,,,,,
Li$_{3}$Mo$_{2}$(PO$_{4}$)$_{3}$,4.0007,eV,,,,,,,
Mo$_{2}$P$_{2}$O$_{11}$,1.9934,eV,,,,,,,
Fe(PO$_{3}$)$_{5}$,0.5812,eV,,,,,,,
MnPO$_{4}$,1.0778,eV,,,,,,,
LiV$_{2}$(PO$_{4}$)$_{3}$,1.3303999999999998,eV,,,,,,,
Li$_{2}$Fe(PO$_{3}$)$_{4}$,4.6023,eV,,,,,,,
MnP$_{2}$O$_{7}$,1.0364,eV,,,,,,,
LiNi(PO$_{3}$)$_{4}$,0.6741000000000001,eV,,,,,,,
LiMn(PO$_{3}$)$_{4}$,1.5347,eV,,,,,,,
LiNiP$_{2}$O$_{7}$,0.5656,eV,,,,,,,
Li$_{3}$Co$_{3}$(PO$_{4}$)$_{4}$,0.38360000000000005,eV,,,,,,,
Li$_{2}$Ni(PO$_{3}$)$_{4}$,4.5469,eV,,,,,,,
LiV(PO$_{3}$)$_{4}$,2.2727000000000004,eV,,,,,,,
FeP$_{2}$O$_{7}$,0.017199999999999993,eV,,,,,,,
Li$_{2}$Cr$_{3}$(P$_{2}$O$_{7}$)$_{2}$,2.1845,eV,,,,,,,
Cr$_{3}$(P$_{2}$O$_{7}$)$_{2}$,0.013399999999999856,eV,,,,,,,
LiVP$_{2}$O$_{7}$,2.1508,eV,,,,,,,
Li$_{2}$MnP$_{2}$O$_{7}$,3.1115999999999997,eV,,,,,,,
LiMnP$_{2}$O$_{7}$,1.6166,eV,,,,,,,
CaTl$_{2}$O$_{4}$,0.04610000000000003,eV,,,,,,,
LiCr(PO$_{3}$)$_{4}$,2.7786,eV,,,,,,,
LiCo$_{2}$P$_{3}$O$_{10}$,3.0638,eV,,,,,,,
Co$_{2}$P$_{3}$O$_{10}$,0.516,eV,,,,,,,
Cr$_{3}$(P$_{2}$O$_{7}$)$_{2}$,1.1186,eV,,,,,,,
Li$_{2}$Cr$_{3}$(P$_{2}$O$_{7}$)$_{2}$,3.1927000000000003,eV,,,,,,,
Cr$_{2}$(PO$_{4}$)$_{3}$,0.0,eV,,,,,,,
Li$_{3}$Mo(PO$_{3}$)$_{8}$,1.1815000000000002,eV,,,,,,,
LiFeP$_{2}$O$_{7}$,2.5637,eV,,,,,,,
Li$_{3}$Cr(PO$_{3}$)$_{8}$,0.0,eV,,,,,,,
Li$_{2}$Cr(PO$_{3}$)$_{8}$,2.7314999999999996,eV,,,,,,,
LiMnP$_{2}$O$_{7}$,1.3030000000000002,eV,,,,,,,
MnP$_{2}$O$_{7}$,1.0426,eV,,,,,,,
Li$_{2}$MnP$_{2}$O$_{7}$,4.2547999999999995,eV,,,,,,,
LiNiP$_{2}$O$_{7}$,0.0,eV,,,,,,,
Li$_{2}$Mo(PO$_{4}$)$_{2}$,1.5135999999999998,eV,,,,,,,
Li$_{2}$FeP$_{2}$O$_{7}$,4.1959,eV,,,,,,,
Li$_{2}$NiP$_{2}$O$_{7}$,3.5677999999999996,eV,,,,,,,
MoPO$_{5}$,1.1381999999999999,eV,,,,,,,
Li$_{14}$Ni$_{9}$(P$_{2}$O$_{7}$)$_{8}$,3.6498,eV,,,,,,,
LiMnP$_{2}$O$_{7}$,1.7152,eV,,,,,,,
LiNiPO$_{4}$,3.4107000000000003,eV,,,,,,,
LiNiPO$_{4}$,3.4881,eV,,,,,,,
NiPO$_{4}$,1.1857,eV,,,,,,,
Li$_{2}$V(PO$_{4}$)$_{2}$,1.4512999999999998,eV,,,,,,,
LiNiPO$_{4}$,3.2077,eV,,,,,,,
NiPO$_{4}$,1.1558,eV,,,,,,,
Li$_{2}$CoP$_{2}$O$_{7}$,3.0443000000000002,eV,,,,,,,
Ti(PO$_{3}$)$_{4}$,1.9457,eV,,,,,,,
Li$_{2}$V(PO$_{4}$)$_{2}$,1.2978999999999998,eV,,,,,,,
Li$_{2}$Cr(PO$_{3}$)$_{4}$,3.4217,eV,,,,,,,
VPO$_{5}$,1.4709000000000003,eV,,,,,,,
Co(PO$_{3}$)$_{4}$,0.24680000000000002,eV,,,,,,,
LiMoP$_{2}$O$_{7}$,3.7065,eV,,,,,,,
MoP$_{2}$O$_{7}$,1.2872999999999999,eV,,,,,,,
LiNiP$_{2}$O$_{7}$,0.029900000000000038,eV,,,,,,,
CrP$_{2}$O$_{7}$,0.6454,eV,,,,,,,
LiCo(PO$_{3}$)$_{3}$,3.0495,eV,,,,,,,
LiVPO$_{5}$,1.6961,eV,,,,,,,
VPO$_{5}$,1.6329000000000002,eV,,,,,,,
CuPO$_{4}$,0.1441,eV,,,,,,,
LiNiP$_{2}$O$_{7}$,0.012499999999999956,eV,,,,,,,
Li$_{2}$Cr(PO$_{4}$)$_{2}$,0.0,eV,,,,,,,
CrP$_{2}$O$_{7}$,0.2875,eV,,,,,,,
LiCrPO$_{5}$,0.17789999999999973,eV,,,,,,,
CrPO$_{5}$,1.5296999999999998,eV,,,,,,,
Li$_{2}$Mo(PO$_{4}$)$_{2}$,1.7581,eV,,,,,,,
Rb$_{2}$TiO$_{3}$,3.8598,eV,,,,,,,
Ni$_{4}$(PO$_{4}$)$_{3}$,0.0,eV,,,,,,,
LiMo(PO$_{3}$)$_{4}$,4.3232,eV,,,,,,,
Li$_{3}$Ni$_{3}$(PO$_{4}$)$_{4}$,0.01529999999999987,eV,,,,,,,
Li$_{3}$Mo$_{2}$(PO$_{4}$)$_{3}$,2.727,eV,,,,,,,
Li$_{2}$Mo(PO$_{3}$)$_{5}$,4.4309,eV,,,,,,,
Li$_{3}$V(PO$_{4}$)$_{2}$,2.1261,eV,,,,,,,
Li$_{2}$V(PO$_{4}$)$_{2}$,1.4504000000000001,eV,,,,,,,
LiFe(PO$_{3}$)$_{3}$,4.189500000000001,eV,,,,,,,
Fe(PO$_{3}$)$_{3}$,2.0457,eV,,,,,,,
Mn$_{3}$(P$_{2}$O$_{7}$)$_{2}$,0.07800000000000007,eV,,,,,,,
FePO$_{4}$,2.7308000000000003,eV,,,,,,,
CrP$_{2}$O$_{7}$,0.34440000000000004,eV,,,,,,,
NiPO$_{4}$,0.39790000000000003,eV,,,,,,,
Li$_{2}$V(PO$_{3}$)$_{5}$,2.2923,eV,,,,,,,
LiMn(PO$_{3}$)$_{4}$,1.5583,eV,,,,,,,
V$_{4}$P$_{7}$O$_{24}$,0.8110999999999999,eV,,,,,,,
MnP$_{2}$O$_{7}$,1.4208999999999998,eV,,,,,,,
FePO$_{4}$,1.2423000000000002,eV,,,,,,,
Li$_{2}$Cr(PO$_{4}$)$_{2}$,0.31810000000000005,eV,,,,,,,
Li$_{3}$V(PO$_{4}$)$_{2}$,2.0938000000000003,eV,,,,,,,
FeP$_{2}$O$_{7}$,0.0628,eV,,,,,,,
MnP$_{2}$O$_{7}$,0.8859,eV,,,,,,,
V$_{2}$P$_{3}$O$_{10}$,0.8922000000000003,eV,,,,,,,
LiCoP$_{2}$O$_{7}$,1.2396,eV,,,,,,,
LiCoP$_{2}$O$_{7}$,0.9931999999999999,eV,,,,,,,
LiFe(PO$_{3}$)$_{4}$,2.502,eV,,,,,,,
VP$_{2}$O$_{7}$,1.1998999999999997,eV,,,,,,,
Li$_{3}$Cr$_{2}$P$_{5}$O$_{18}$,0.05979999999999985,eV,,,,,,,
Li$_{3}$Ni(PO$_{4}$)$_{2}$,0.18869999999999987,eV,,,,,,,
LiFe$_{2}$(PO$_{4}$)$_{3}$,0.005300000000000027,eV,,,,,,,
LiCoP$_{2}$O$_{7}$,0.9701000000000002,eV,,,,,,,
VP$_{2}$O$_{7}$,1.3194,eV,,,,,,,
LiCrPO$_{4}$,2.7463,eV,,,,,,,
Li$_{3}$Cr$_{2}$(PO$_{4}$)$_{3}$,3.1279,eV,,,,,,,
CoPO$_{4}$,1.0241,eV,,,,,,,
LiCrPO$_{4}$,2.6689999999999996,eV,,,,,,,
CrPO$_{4}$,1.2009999999999998,eV,,,,,,,
Li$_{3}$Fe(PO$_{4}$)$_{2}$,2.2211,eV,,,,,,,
LiFePO$_{4}$,3.6103,eV,,,,,,,
FeP$_{2}$O$_{7}$,0.1263,eV,,,,,,,
Mn$_{4}$P$_{7}$O$_{24}$,0.39369999999999994,eV,,,,,,,
LiMnP$_{2}$O$_{7}$,0.6864999999999999,eV,,,,,,,
MnP$_{2}$O$_{7}$,0.9913,eV,,,,,,,
LiVP$_{2}$O$_{7}$,2.0984000000000003,eV,,,,,,,
LiMnPO$_{4}$,3.4653,eV,,,,,,,
MnPO$_{4}$,0.4366,eV,,,,,,,
LiFe$_{2}$(PO$_{4}$)$_{3}$,7.000000000000339E-4,eV,,,,,,,
Li$_{2}$MnP$_{2}$O$_{7}$,4.1701,eV,,,,,,,
LiCr(PO$_{3}$)$_{4}$,3.4423,eV,,,,,,,
Cr(PO$_{3}$)$_{4}$,0.2935,eV,,,,,,,
LiMo(PO$_{4}$)$_{2}$,1.3851999999999998,eV,,,,,,,
V(PO$_{3}$)$_{4}$,1.5689,eV,,,,,,,
Li$_{2}$Fe$_{5}$(PO$_{4}$)$_{4}$,0.0,eV,,,,,,,
Fe$_{5}$(PO$_{4}$)$_{4}$,0.5726,eV,,,,,,,
Li$_{2}$Fe$_{3}$(P$_{2}$O$_{7}$)$_{2}$,3.8427,eV,,,,,,,
LiCo(PO$_{3}$)$_{4}$,1.4762,eV,,,,,,,
Li$_{2}$Mo(PO$_{4}$)$_{2}$,1.6194000000000002,eV,,,,,,,
LiMo(PO$_{4}$)$_{2}$,1.3307,eV,,,,,,,
LiMn(PO$_{3}$)$_{3}$,3.9840999999999998,eV,,,,,,,
Mn(PO$_{3}$)$_{3}$,1.0507,eV,,,,,,,
LiCrPO$_{4}$,2.0281999999999996,eV,,,,,,,
CrPO$_{4}$,0.7435999999999998,eV,,,,,,,
Cr$_{5}$(PO$_{4}$)$_{4}$,0.0,eV,,,,,,,
LiNi(PO$_{3}$)$_{3}$,3.9183000000000003,eV,,,,,,,
LiV(PO$_{4}$)$_{2}$,1.2990999999999997,eV,,,,,,,
Li$_{4}$FeP$_{2}$O$_{9}$,0.0,eV,,,,,,,
Li$_{3}$FeP$_{2}$O$_{9}$,0.018399999999999972,eV,,,,,,,
Li$_{3}$V$_{2}$(PO$_{4}$)$_{3}$,1.9856000000000003,eV,,,,,,,
LiCr(PO$_{3}$)$_{3}$,2.9745000000000004,eV,,,,,,,
Li$_{4}$CrP$_{2}$O$_{9}$,0.02190000000000003,eV,,,,,,,
Li$_{3}$CrP$_{2}$O$_{9}$,0.007000000000000006,eV,,,,,,,
LiCr$_{4}$(PO$_{4}$)$_{3}$,2.6339,eV,,,,,,,
Cr$_{4}$(PO$_{4}$)$_{3}$,0.1844999999999999,eV,,,,,,,
LiV(PO$_{3}$)$_{4}$,2.1957000000000004,eV,,,,,,,
LiCrPO$_{4}$,0.0,eV,,,,,,,
CrPO$_{4}$,2.0334000000000003,eV,,,,,,,
Li$_{2}$Ni$_{5}$(PO$_{4}$)$_{4}$,0.0,eV,,,,,,,
CrPO$_{5}$,1.3881999999999999,eV,,,,,,,
Co(PO$_{3}$)$_{4}$,0.009699999999999986,eV,,,,,,,
Li$_{2}$Co$_{3}$(P$_{2}$O$_{7}$)$_{2}$,2.9025999999999996,eV,,,,,,,
LiMn(PO$_{3}$)$_{3}$,3.9814000000000003,eV,,,,,,,
Mn(PO$_{3}$)$_{3}$,1.416,eV,,,,,,,
MnPO$_{4}$,0.8654,eV,,,,,,,
LiMnPO$_{4}$,3.4374,eV,,,,,,,
Li$_{2}$Mn(PO$_{3}$)$_{4}$,3.8816000000000006,eV,,,,,,,
Li$_{2}$V(PO$_{4}$)$_{2}$,1.5536,eV,,,,,,,
Li$_{2}$CrP$_{2}$O$_{7}$,3.7041000000000004,eV,,,,,,,
LiCrP$_{2}$O$_{7}$,1.2397,eV,,,,,,,
LiMnP$_{2}$O$_{7}$,1.3146999999999998,eV,,,,,,,
Mn(PO$_{3}$)$_{4}$,1.0449000000000002,eV,,,,,,,
Fe$_{3}$(P$_{2}$O$_{7}$)$_{2}$,0.8609,eV,,,,,,,
LiCoPO$_{4}$,3.138,eV,,,,,,,
Co(PO$_{3}$)$_{3}$,1.2056,eV,,,,,,,
LiCo(PO$_{3}$)$_{4}$,1.3498999999999999,eV,,,,,,,
Cu(PO$_{3}$)$_{3}$,0.21110000000000007,eV,,,,,,,
Fe$_{2}$P$_{3}$O$_{10}$,0.37460000000000004,eV,,,,,,,
Co$_{3}$(P$_{2}$O$_{7}$)$_{2}$,0.020000000000000018,eV,,,,,,,
Li$_{6}$V$_{3}$P$_{8}$O$_{29}$,1.4842,eV,,,,,,,
LiMn$_{5}$(P$_{2}$O$_{7}$)$_{4}$,0.47940000000000005,eV,,,,,,,
Li$_{4}$Ni$_{3}$P$_{4}$O$_{15}$,3.7318,eV,,,,,,,
Li$_{7}$Fe$_{4}$P$_{9}$O$_{32}$,2.5987999999999998,eV,,,,,,,
Mn$_{4}$(PO$_{4}$)$_{3}$,0.2287999999999999,eV,,,,,,,
Cr$_{2}$P$_{3}$O$_{13}$,0.14579999999999999,eV,,,,,,,
Li$_{2}$Co(PO$_{3}$)$_{4}$,2.8594999999999997,eV,,,,,,,
MoPO$_{5}$,1.3322,eV,,,,,,,
Mo$_{2}$P$_{3}$O$_{13}$,1.623,eV,,,,,,,
Ga$_{4}$Fe$_{3}$,0.0,eV,,,,,,,
PaBr$_{3}$O,1.7543,eV,,,,,,,
Li$_{2}$W$_{2}$O$_{7}$,3.996,eV,,,,,,,
Mn$_{3}$(CoO$_{4}$)$_{2}$,0.7563,eV,,,,,,,
U$_{8}$CrS$_{17}$,0.0,eV,,,,,,,
MnH$_{8}$(BrO$_{2}$)$_{2}$,3.4753,eV,,,,,,,
Er$_{3}$Ni$_{2}$,0.0035999999999996035,eV,,,,,,,
Sm$_{2}$Co$_{7}$,0.0,eV,,,,,,,
Al(PO$_{3}$)$_{3}$,5.7002,eV,,,,,,,
NaH$_{2}$ClO$_{5}$,5.2933,eV,,,,,,,
Te$_{7}$(OF$_{5}$)$_{6}$,2.3632,eV,,,,,,,
NaH$_{5}$SO$_{4}$,3.9652,eV,,,,,,,
S$_{5}$N$_{4}$O$_{3}$,1.8444000000000003,eV,,,,,,,
V$_{2}$Hg$_{2}$O$_{7}$,1.2817999999999998,eV,,,,,,,
BaFe$_{4}$O$_{7}$,1.2527,eV,,,,,,,
CsCr$_{5}$S$_{8}$,0.2959000000000005,eV,,,,,,,
MgVO$_{3}$,2.6932,eV,,,,,,,
NCl$_{3}$,2.1636,eV,,,,,,,
Cs$_{2}$Hg$_{3}$I$_{8}$,1.8421,eV,,,,,,,
ZnHg$_{2}$H$_{14}$C$_{4}$N$_{6}$O$_{13}$,3.433,eV,,,,,,,
KZr$_{2}$(PO$_{4}$)$_{3}$,4.2822000000000005,eV,,,,,,,
Cs$_{2}$ZnCl$_{4}$,4.5412,eV,,,,,,,
K$_{2}$PdO$_{2}$,1.3697,eV,,,,,,,
BaGa$_{2}$(GeO$_{4}$)$_{2}$,3.4836,eV,,,,,,,
Tl$_{2}$SnO$_{3}$,1.1414,eV,,,,,,,
Na$_{2}$FeH$_{4}$C$_{5}$(N$_{2}$O)$_{3}$,2.7695999999999996,eV,,,,,,,
Fe$_{2}$(TeO$_{3}$)$_{3}$,2.1372000000000004,eV,,,,,,,
Ti$_{4}$Tl$_{2}$O$_{9}$,2.8163000000000005,eV,,,,,,,
Dy$_{6}$Fe$_{16}$O,0.0,eV,,,,,,,
Y$_{6}$Fe$_{16}$O,0.0,eV,,,,,,,
NaZnMoHO$_{5}$,3.3523,eV,,,,,,,
CsMnI$_{3}$,1.0158,eV,,,,,,,
K$_{2}$U$_{7}$O$_{22}$,1.4469000000000003,eV,,,,,,,
RbNd(PO$_{3}$)$_{4}$,5.451899999999999,eV,,,,,,,
BaMn$_{2}$O$_{3}$,0.4585999999999997,eV,,,,,,,
Nb$_{3}$Se$_{5}$Cl$_{7}$,0.9467000000000001,eV,,,,,,,
K$_{3}$IO$_{5}$,1.2686000000000002,eV,,,,,,,
K$_{3}$SnTe$_{3}$,1.2297000000000002,eV,,,,,,,
Mn$_{2}$Mo$_{3}$O$_{8}$,0.0,eV,,,,,,,
SrGa$_{2}$(GeO$_{4}$)$_{2}$,3.0761,eV,,,,,,,
RhF$_{5}$,0.0,eV,,,,,,,
GeSe$_{2}$,1.4381000000000002,eV,,,,,,,
NiH$_{8}$(IO$_{5}$)$_{2}$,3.6538,eV,,,,,,,
K$_{2}$Ba(SO)$_{12}$,2.7286,eV,,,,,,,
Al(TeCl$_{2}$)$_{2}$,1.3285,eV,,,,,,,
Al$_{2}$Te$_{2}$Cl$_{7}$,1.4057,eV,,,,,,,
VFeO$_{4}$,2.0493,eV,,,,,,,
KTa(GeO$_{3}$)$_{3}$,3.5077000000000003,eV,,,,,,,
RbTa(GeO$_{3}$)$_{3}$,3.473,eV,,,,,,,
RbNb(GeO$_{3}$)$_{3}$,3.1666,eV,,,,,,,
TaTl(GeO$_{3}$)$_{3}$,3.6578,eV,,,,,,,
BaSn(GeO$_{3}$)$_{3}$,2.7734,eV,,,,,,,
WOF$_{4}$,3.1048,eV,,,,,,,
FeH$_{8}$C$_{4}$(S$_{2}$N$_{3}$)$_{2}$,0.5768,eV,,,,,,,
Sr$_{2}$Ti$_{6}$O$_{13}$,9.999999999976694E-5,eV,,,,,,,
Sn$_{4}$SI$_{6}$,1.2644999999999995,eV,,,,,,,
Hg$_{3}$(ClO)$_{2}$,0.6363,eV,,,,,,,
BaMnSnS$_{4}$,1.1559000000000004,eV,,,,,,,
SrAlF$_{5}$,7.0874,eV,,,,,,,
RbCdC$_{3}$(SN)$_{3}$,3.208,eV,,,,,,,
Sb(S$_{8}$I)$_{3}$,2.384,eV,,,,,,,
Ba(BO$_{2}$)$_{2}$,4.522399999999999,eV,,,,,,,
Nb$_{4}$As$_{3}$,0.0,eV,,,,,,,
Cu$_{7}$As$_{6}$Se$_{13}$,0.0,eV,,,,,,,
BS$_{2}$,2.5564,eV,,,,,,,
Ti$_{7}$Cl$_{16}$,0.0,eV,,,,,,,
Ti$_{7}$Br$_{16}$,0.0,eV,,,,,,,
Ba$_{2}$MnO$_{3}$,1.6202999999999999,eV,,,,,,,
SeCl$_{4}$,3.0467,eV,,,,,,,
MnH$_{4}$(ClO)$_{2}$,4.3746,eV,,,,,,,
UFeO$_{4}$,0.007400000000000517,eV,,,,,,,
Yb$_{3}$S$_{4}$,0.6597999999999997,eV,,,,,,,
Nb$_{2}$CoO$_{6}$,2.3241,eV,,,,,,,
Eu$_{2}$(WO$_{4}$)$_{3}$,4.999999999999449E-4,eV,,,,,,,
CsPr(SO$_{4}$)$_{2}$,5.413600000000001,eV,,,,,,,
Ge$_{3}$(BiTe$_{3}$)$_{2}$,0.0,eV,,,,,,,
SrIn$_{2}$O$_{4}$,1.8083,eV,,,,,,,
Ba$_{2}$SnS$_{4}$,2.3103,eV,,,,,,,
CsV$_{2}$O$_{5}$,2.0615,eV,,,,,,,
Ba$_{3}$YIr$_{2}$O$_{9}$,0.0,eV,,,,,,,
Ba$_{3}$SmIr$_{2}$O$_{9}$,0.0,eV,,,,,,,
La$_{2}$CoO$_{4}$,0.8839000000000006,eV,,,,,,,
Ba$_{2}$NiOsO$_{6}$,0.0,eV,,,,,,,
Cs$_{2}$DyCl$_{5}$,5.0074,eV,,,,,,,
Ca$_{3}$(SiAs$_{2}$)$_{2}$,0.823,eV,,,,,,,
TiAlCo$_{2}$,0.0,eV,,,,,,,
LiV$_{3}$O$_{8}$,1.8852000000000002,eV,,,,,,,
V$_{3}$As$_{2}$,0.0,eV,,,,,,,
Fe$_{7}$Se$_{8}$,0.0,eV,,,,,,,
Cs$_{2}$S,2.0957,eV,,,,,,,
MgCrO$_{4}$,2.3629,eV,,,,,,,
Na$_{2}$Nb$_{4}$O$_{11}$,2.6498,eV,,,,,,,
Cs$_{2}$Sn(GeO$_{3}$)$_{3}$,2.6073,eV,,,,,,,
FeCoBO$_{4}$,1.4346,eV,,,,,,,
Ca$_{2}$Al$_{2}$FeSi$_{4}$BHO$_{16}$,3.9301000000000004,eV,,,,,,,
NaH$_{8}$SNO$_{6}$,4.9987,eV,,,,,,,
PbWO$_{4}$,3.1121999999999996,eV,,,,,,,
NaB$_{5}$H$_{10}$O$_{13}$,5.6657,eV,,,,,,,
Fe$_{4}$Cu$_{2}$S$_{7}$,0.09990000000000032,eV,,,,,,,
CsBe$_{4}$Al$_{4}$(B$_{3}$O$_{7}$)$_{4}$,0.06400000000000006,eV,,,,,,,
K$_{2}$Zn$_{6}$O$_{7}$,0.7588000000000001,eV,,,,,,,
MgB$_{4}$(H$_{9}$O$_{8}$)$_{2}$,5.2211,eV,,,,,,,
Na$_{14}$Mn$_{2}$O$_{9}$,0.8901999999999999,eV,,,,,,,
Cs$_{2}$UBr$_{6}$,0.0,eV,,,,,,,
BaCd(PO$_{3}$)$_{4}$,4.396400000000001,eV,,,,,,,
ZrP$_{2}$H$_{4}$O$_{9}$,3.2060000000000004,eV,,,,,,,
Ba$_{3}$YIr$_{2}$O$_{9}$,0.017700000000000493,eV,,,,,,,
Fe$_{4}$Bi$_{2}$O$_{9}$,1.8956999999999997,eV,,,,,,,
NdTl(PO$_{3}$)$_{4}$,5.2239,eV,,,,,,,
Th$_{2}$Zn$_{17}$,0.09830000000000005,eV,,,,,,,
Nb$_{3}$SiNi$_{2}$,0.0,eV,,,,,,,
CsNb(PO$_{4}$)$_{2}$,3.2732,eV,,,,,,,
KCe(PO$_{3}$)$_{4}$,0.1581999999999999,eV,,,,,,,
Zr$_{2}$Nb$_{3}$Ge$_{4}$,0.0,eV,,,,,,,
Al$_{2}$CoCl$_{8}$,0.3251,eV,,,,,,,
FePCl$_{8}$,1.4417,eV,,,,,,,
K$_{2}$MnO$_{4}$,0.43810000000000004,eV,,,,,,,
BaZrS$_{3}$,0.9971000000000001,eV,,,,,,,
Er$_{2}$Ni$_{12}$P$_{7}$,0.0,eV,,,,,,,
Ca$_{2}$GeS$_{4}$,2.5134,eV,,,,,,,
RbCr$_{2}$FeO$_{8}$,2.0604999999999998,eV,,,,,,,
CsVO$_{3}$,3.1093,eV,,,,,,,
V$_{4}$As$_{3}$,0.0,eV,,,,,,,
OsO$_{4}$,3.3465,eV,,,,,,,
Rb$_{2}$Ti$_{6}$O$_{13}$,2.6209000000000002,eV,,,,,,,
PCF$_{3}$,0.9723999999999999,eV,,,,,,,
K$_{3}$V$_{5}$O$_{14}$,2.3325,eV,,,,,,,
PbI$_{2}$,2.3956999999999997,eV,,,,,,,
Si$_{4}$Rh$_{3}$,0.0,eV,,,,,,,
Ge$_{2}$S$_{3}$Br$_{2}$,2.4406999999999996,eV,,,,,,,
VCl$_{2}$O,1.2211,eV,,,,,,,
Ba$_{3}$SrNb$_{2}$O$_{9}$,3.2346,eV,,,,,,,
Ba$_{3}$SrTa$_{2}$O$_{9}$,3.8005000000000004,eV,,,,,,,
Cs$_{2}$Sn$_{2}$O$_{3}$,2.5788,eV,,,,,,,
S$_{3}$(NO$_{7}$)$_{2}$,1.44,eV,,,,,,,
Ag$_{3}$AsO$_{4}$,0.0,eV,,,,,,,
K$_{3}$Mn(CN)$_{6}$,0.0,eV,,,,,,,
Sr$_{3}$(LiSb)$_{4}$,0.0,eV,,,,,,,
RbBi$_{3}$S$_{5}$,0.0,eV,,,,,,,
Ba$_{2}$GeS$_{4}$,2.2853,eV,,,,,,,
Ca$_{2}$IrO$_{4}$,0.0,eV,,,,,,,
C$_{2}$S$_{3}$N$_{2}$,2.6373,eV,,,,,,,
S$_{4}$N$_{4}$O$_{3}$,1.5265999999999997,eV,,,,,,,
Zr$_{2}$Fe$_{12}$P$_{7}$,0.0,eV,,,,,,,
Rb$_{2}$SbBr$_{6}$,0.0,eV,,,,,,,
Sr$_{2}$CuF$_{6}$,0.01100000000000001,eV,,,,,,,
K$_{3}$ReC$_{4}$(N$_{2}$O)$_{2}$,2.3828,eV,,,,,,,
Tl$_{2}$Ge$_{2}$Se$_{5}$,1.4125999999999999,eV,,,,,,,
Re(CO)$_{5}$,2.9920999999999998,eV,,,,,,,
NiTe$_{2}$O$_{5}$,2.7170000000000005,eV,,,,,,,
Cs$_{3}$Zr$_{2}$I$_{9}$,0.39559999999999995,eV,,,,,,,
Mn$_{2}$BiO$_{5}$,0.4782000000000002,eV,,,,,,,
Ba$_{2}$UFeO$_{6}$,0.014499999999999957,eV,,,,,,,
RuF$_{5}$,0.6511000000000002,eV,,,,,,,
OsF$_{5}$,0.0,eV,,,,,,,