formula,Property Band Gap,Property Band Gap units,Property Band gap,Property Band gap units,Temperature (Property Band gap),Temperature (Property Band gap) units,Property Color,Temperature (Property Color),Temperature (Property Color) units
Sc$_{57}$Rh$_{13}$,0.03849999999999998,eV,,,,,,,
Y$_{2}$Sn$_{5}$Rh$_{3}$,0.0,eV,,,,,,,
TmRh$_{2}$,0.0,eV,,,,,,,
Rh$_{3}$W,0.0,eV,,,,,,,
ScRu,0.0,eV,,,,,,,
SmZn$_{12}$,0.0,eV,,,,,,,
Ta$_{3}$Sn,0.0,eV,,,,,,,
ThSn$_{2}$,0.0,eV,,,,,,,
Th$_{5}$Sn$_{3}$,0.0,eV,,,,,,,
Th$_{5}$Sn$_{4}$,0.0,eV,,,,,,,
Zr$_{3}$Sn,0.0,eV,,,,,,,
SrTl$_{2}$,0.0,eV,,,,,,,
TbTl,0.0,eV,,,,,,,
Tb$_{5}$Tl$_{3}$,0.0,eV,,,,,,,
LaBRh$_{3}$,0.0,eV,,,,,,,
Tb$_{2}$Zn$_{17}$,0.0,eV,,,,,,,
TiZn$_{2}$,0.0,eV,,,,,,,
V$_{4}$Zn$_{5}$,0.0,eV,,,,,,,
YZn$_{3}$,0.0,eV,,,,,,,
YZn$_{5}$,0.0,eV,,,,,,,
YZn$_{12}$,0.0,eV,,,,,,,
ZrZn$_{22}$,0.0,eV,,,,,,,
Ho$_{2}$Ru$_{2}$O$_{7}$,0.0,eV,,,,,,,
Hg$_{3}$SO$_{6}$,0.5677999999999999,eV,,,,,,,
Ba$_{4}$Bi$_{3}$,0.0,eV,,,,,,,
Sr$_{4}$Bi$_{3}$,0.0,eV,,,,,,,
Ce$_{2}$B$_{2}$Ir$_{5}$,0.0,eV,,,,,,,
ThAg$_{2}$,0.0,eV,,,,,,,
TaBiO$_{4}$,2.9731,eV,,,,,,,
Er$_{2}$Ru$_{2}$O$_{7}$,0.0,eV,,,,,,,
Ba$_{3}$CrS$_{5}$,0.0,eV,,,,,,,
Ba$_{3}$(CrS$_{3}$)$_{2}$,0.6307999999999998,eV,,,,,,,
Ba$_{3}$(BN$_{2}$)$_{2}$,2.5171,eV,,,,,,,
Sr$_{2}$Al$_{6}$O$_{11}$,4.124,eV,,,,,,,
Dy$_{3}$Co$_{11}$B$_{4}$,0.0,eV,,,,,,,
Ag$_{3}$PSe$_{4}$,0.1682999999999999,eV,,,,,,,
Sm(GaPd)$_{2}$,0.0,eV,,,,,,,
Mg$_{2}$Ga$_{5}$Cu$_{6}$,0.0,eV,,,,,,,
TbCoSn$_{2}$,0,eV,,,,,,,
ErCoSn$_{2}$,0.0,eV,,,,,,,
UAl$_{4}$Co,0.0,eV,,,,,,,
LaGa$_{6}$Pd,0.058699999999999974,eV,,,,,,,
DyB$_{2}$Ru$_{3}$,0.0,eV,,,,,,,
Y$_{6}$CoBi$_{2}$,0.00990000000000002,eV,,,,,,,
Ho$_{6}$CoBi$_{2}$,0.007399999999999629,eV,,,,,,,
Ga$_{5}$Rh$_{3}$,0.0,eV,,,,,,,
La(NO$_{2}$)$_{3}$,2.2049000000000003,eV,,,,,,,
LaB$_{5}$O$_{9}$,4.4878,eV,,,,,,,
CsAs$_{4}$F$_{13}$,5.2661999999999995,eV,,,,,,,
Hg$_{4}$As$_{2}$O$_{7}$,1.1260999999999999,eV,,,,,,,
ErB$_{2}$Ru$_{3}$,0.0,eV,,,,,,,
AlI$_{3}$,3.2580999999999998,eV,,,,,,,
Na$_{4}$SiSe$_{4}$,2.1322,eV,,,,,,,
ZrBi,0.0,eV,,,,,,,
As(S$_{8}$I)$_{3}$,2.0753,eV,,,,,,,
B$_{17}$F$_{27}$,2.5751,eV,,,,,,,
B$_{5}$F$_{6}$,3.2984999999999998,eV,,,,,,,
HgClO$_{3}$,3.0660999999999996,eV,,,,,,,
PAuS$_{4}$,1.3165,eV,,,,,,,
SrAl$_{2}$O$_{4}$,4.1398,eV,,,,,,,
Cd$_{2}$Te$_{2}$O$_{7}$,1.7272999999999996,eV,,,,,,,
Cd$_{2}$(TeO$_{3}$)$_{3}$,1.9308999999999998,eV,,,,,,,
Ba$_{6}$Mg$_{11}$F$_{34}$,6.5470999999999995,eV,,,,,,,
MgPSe$_{3}$,2.0382,eV,,,,,,,
Ce$_{4}$Ga$_{5}$Br$_{2}$,0,eV,,,,,,,
Ga$_{2}$PdBr$_{8}$,1.6095000000000002,eV,,,,,,,
Ga$_{2}$PdI$_{8}$,1.4176,eV,,,,,,,
Tb(IO$_{3}$)$_{3}$,3.5406,eV,,,,,,,
Sr$_{3}$SiO,0.42959999999999976,eV,,,,,,,
Sr$_{3}$GeO,0.3363999999999998,eV,,,,,,,
CsTi$_{2}$I$_{7}$,0.19019999999999992,eV,,,,,,,
GaCl$_{3}$,4.1628,eV,,,,,,,
GaBr$_{3}$,3.3472999999999997,eV,,,,,,,
GaI$_{3}$,2.3617,eV,,,,,,,
Pr(PO$_{3}$)$_{3}$,5.4756,eV,,,,,,,
Ca(BS$_{2}$)$_{2}$,3.0095,eV,,,,,,,
LiHS,3.5474,eV,,,,,,,
Ca$_{7}$Tl$_{3}$N$_{2}$,0.0,eV,,,,,,,
K$_{4}$Ge$_{9}$O$_{20}$,3.0665,eV,,,,,,,
Er$_{2}$Zn$_{17}$,0.0,eV,,,,,,,
Dy$_{2}$Zn$_{17}$,0.0,eV,,,,,,,
NaClO$_{2}$,2.409,eV,,,,,,,
Tb$_{12}$Co$_{7}$,0.0,eV,,,,,,,
Ho$_{12}$Co$_{7}$,0.0,eV,,,,,,,
Tb(SiRh)$_{2}$,0.0,eV,,,,,,,
Er$_{12}$Co$_{7}$,0.0,eV,,,,,,,
CuTe$_{2}$Cl,0.5969000000000002,eV,,,,,,,
Na$_{2}$Sb$_{4}$O$_{7}$,3.0602,eV,,,,,,,
Ni$_{3}$(BiSe)$_{2}$,0.0,eV,,,,,,,
CsWCl$_{6}$,0.0,eV,,,,,,,
Na$_{3}$BO$_{3}$,2.9455999999999998,eV,,,,,,,
B$_{5}$H$_{6}$Br,3.0316,eV,,,,,,,
KAl$_{2}$Br$_{7}$,4.2314,eV,,,,,,,
GaPS$_{4}$,2.3217999999999996,eV,,,,,,,
AlCuO$_{2}$,1.8148,eV,,,,,,,
NaYO$_{2}$,4.132999999999999,eV,,,,,,,
Te(HO)$_{6}$,3.0698,eV,,,,,,,
Ag$_{2}$SO$_{3}$,2.2991,eV,,,,,,,
CaP$_{4}$O$_{11}$,5.3423,eV,,,,,,,
S(IO$_{3}$)$_{2}$,1.8695000000000002,eV,,,,,,,
Tb$_{6}$Br$_{7}$,0.0,eV,,,,,,,
Zn$_{3}$S$_{2}$O$_{9}$,3.3649,eV,,,,,,,
KBiO$_{2}$,1.8496000000000001,eV,,,,,,,
Sn(NO$_{3}$)$_{4}$,3.6378,eV,,,,,,,
K$_{6}$Si$_{2}$O$_{7}$,3.5066000000000006,eV,,,,,,,
Ba(IO$_{3}$)$_{2}$,3.5562000000000005,eV,,,,,,,
LaIO,3.2887000000000004,eV,,,,,,,
RbAuBr$_{4}$,1.4423,eV,,,,,,,
ZrTlF$_{5}$,4.8447,eV,,,,,,,
Ti(NO$_{3}$)$_{4}$,2.8211,eV,,,,,,,
CuCl$_{2}$,0.0917,eV,,,,,,,
NpCo$_{2}$,0.0,eV,,,,,,,
NO,0.0,eV,,,,,,,
KSb$_{3}$O$_{5}$,3.1078999999999994,eV,,,,,,,
Rb$_{2}$Te$_{5}$,0.22820000000000018,eV,,,,,,,
B$_{10}$H$_{13}$I,2.3907,eV,,,,,,,
Sn(SO$_{2}$)$_{2}$,2.7104,eV,,,,,,,
Zn$_{3}$(PO$_{4}$)$_{2}$,3.5343,eV,,,,,,,
Tb$_{5}$Br$_{8}$,0.0,eV,,,,,,,
Na$_{14}$Al$_{4}$O$_{13}$,2.4707,eV,,,,,,,
Ho(NiB)$_{2}$,0,eV,,,,,,,
Ca$_{2}$As$_{3}$,0.23040000000000038,eV,,,,,,,
Y$_{2}$Si$_{2}$Rh,0.0,eV,,,,,,,
K$_{2}$(NbBr$_{3}$)$_{3}$,1.0731,eV,,,,,,,
U(BO$_{3}$)$_{2}$,2.2738,eV,,,,,,,
ZrP$_{2}$S$_{7}$,1.6602999999999999,eV,,,,,,,
Ta$_{3}$SBr$_{7}$,0.8115999999999999,eV,,,,,,,
Ca$_{4}$Nb$_{2}$O$_{9}$,3.2640999999999996,eV,,,,,,,
Ce$_{4}$B$_{2}$N$_{5}$,0.0,eV,,,,,,,
SrAgBi,0.0,eV,,,,,,,
Al$_{45}$Cr$_{7}$,0.0,eV,,,,,,,
TaCuS$_{3}$,0.41999999999999993,eV,,,,,,,
AsI$_{5}$F$_{6}$,1.3783,eV,,,,,,,
Hf$_{2}$Si$_{4}$Ru$_{3}$,0.0,eV,,,,,,,
Sc$_{5}$CCl$_{8}$,0.0,eV,,,,,,,
Sc$_{5}$NCl$_{8}$,0.0,eV,,,,,,,
Ba$_{6}$Zn$_{7}$F$_{26}$,4.4184,eV,,,,,,,
Sc$_{3}$(ReSi$_{2}$)$_{2}$,0.0,eV,,,,,,,
Nd$_{2}$Ni$_{5}$B$_{4}$,0.0,eV,,,,,,,
Nb$_{4}$AlC$_{3}$,0,eV,,,,,,,
KHo$_{2}$F$_{7}$,6.916099999999999,eV,,,,,,,
La$_{4}$PdO$_{7}$,0.3863000000000003,eV,,,,,,,
HfF$_{4}$,5.402,eV,,,,,,,
ThF$_{4}$,6.5408,eV,,,,,,,
CuTe$_{2}$Br,0.7393000000000001,eV,,,,,,,
CuTe$_{2}$I,0.8199000000000001,eV,,,,,,,
CuSe$_{2}$Cl,0.8773999999999997,eV,,,,,,,
Rb$_{6}$Te$_{2}$O$_{9}$,0.8486999999999998,eV,,,,,,,
BaZrN$_{2}$,0.9972000000000003,eV,,,,,,,
NbCl$_{4}$,1.0769000000000002,eV,,,,,,,
Ca$_{9}$Mn$_{4}$Bi$_{9}$,0.0,eV,,,,,,,
H$_{5}$NF$_{2}$,6.8966,eV,,,,,,,
KAuI$_{3}$,0.6644,eV,,,,,,,
Ho$_{3}$CrB$_{7}$,0.0,eV,,,,,,,
NdO$_{2}$,3.4112,eV,,,,,,,
LuBPd$_{3}$,0,eV,,,,,,,
Cl$_{2}$O$_{7}$,3.6565000000000003,eV,,,,,,,
CeSi$_{4}$Ni$_{9}$,0,eV,,,,,,,
LaBPt$_{2}$,0.0,eV,,,,,,,
Ag$_{2}$S,1.3608000000000002,eV,,,,,,,
La$_{3}$(VN$_{3}$)$_{2}$,0.0,eV,,,,,,,
Sc$_{3}$InN,0.0,eV,,,,,,,
Dy$_{3}$InN,0.0,eV,,,,,,,
Ho$_{3}$InN,0.11489999999999956,eV,,,,,,,
Er$_{3}$InN,0.0,eV,,,,,,,
Ba(AlGe)$_{2}$,0.0,eV,,,,,,,
Np(SiRu)$_{2}$,0.0,eV,,,,,,,
Rb$_{4}$(BS)$_{9}$,3.1228000000000002,eV,,,,,,,
Y(PO$_{3}$)$_{3}$,5.7608,eV,,,,,,,
B$_{6}$H$_{10}$N,5.657500000000001,eV,,,,,,,
Sc$_{2}$(SeO$_{3}$)$_{3}$,3.8037,eV,,,,,,,
LiUN$_{2}$,0.0,eV,,,,,,,
Nd(ClO$_{4}$)$_{3}$,4.8807,eV,,,,,,,
P$_{2}$Pb$_{4}$O$_{9}$,3.2074,eV,,,,,,,
P$_{2}$Pb$_{8}$O$_{13}$,2.0642,eV,,,,,,,
Ga$_{3}$PO$_{7}$,3.1409000000000002,eV,,,,,,,
As$_{8}$S$_{9}$,1.7164,eV,,,,,,,
Ba$_{2}$Tl$_{7}$Au,0.007500000000000284,eV,,,,,,,
Sc$_{6}$Te$_{2}$Rh,0.0,eV,,,,,,,
Na$_{3}$B$_{7}$O$_{12}$,4.9219,eV,,,,,,,
Hg$_{3}$(SeBr)$_{2}$,1.3272,eV,,,,,,,
Tl$_{2}$TeBr$_{6}$,2.1666,eV,,,,,,,
Tl$_{2}$TeI$_{6}$,1.6797,eV,,,,,,,
CeSiRh$_{2}$,0.0,eV,,,,,,,
Ce$_{3}$(Al$_{3}$Ru)$_{4}$,0.0,eV,,,,,,,
Lu(SiRh)$_{2}$,0.0,eV,,,,,,,
YAlSi,0.0,eV,,,,,,,
Sc(MnAl$_{2}$)$_{4}$,0.0,eV,,,,,,,
Li$_{4}$ZrGe$_{2}$,0.0,eV,,,,,,,
PrSi$_{2}$Ru,0.0,eV,,,,,,,
ZrGe$_{2}$Rh,0.0,eV,,,,,,,
NaP$_{5}$,1.3890000000000002,eV,,,,,,,
Tb$_{2}$Pd$_{2}$Pb,0.0,eV,,,,,,,
Dy$_{2}$Pd$_{2}$Pb,0.0,eV,,,,,,,
Ho$_{2}$Pd$_{2}$Pb,0.0,eV,,,,,,,
UGeTe,0.0,eV,,,,,,,
Er$_{2}$Pd$_{2}$Pb,0.0,eV,,,,,,,
Lu$_{2}$Pd$_{2}$Pb,0.0,eV,,,,,,,
Dy$_{2}$CoSi$_{2}$,0.0,eV,,,,,,,
Tb$_{2}$FeSi$_{2}$,0.0,eV,,,,,,,
Er$_{2}$FeSi$_{2}$,0.0,eV,,,,,,,
Li$_{3}$AlH$_{6}$,3.5929,eV,,,,,,,
KAlH$_{4}$,5.0677,eV,,,,,,,
YB$_{2}$Ir$_{3}$,0.0,eV,,,,,,,
CeIr$_{3}$,0.0,eV,,,,,,,
Gd$_{3}$ReO$_{7}$,0,eV,,,,,,,
Tb$_{3}$ReO$_{7}$,0.0,eV,,,,,,,
Ni$_{3}$Te$_{2}$,0.0,eV,,,,,,,
KBi,0.4058999999999999,eV,,,,,,,
RbBi,0.37770000000000015,eV,,,,,,,
As$_{2}$Pb$_{8}$O$_{13}$,2.0589999999999997,eV,,,,,,,
Pr$_{12}$InPt$_{7}$,0.0,eV,,,,,,,
Ho$_{12}$InPt$_{7}$,0.0,eV,,,,,,,
Sm$_{3}$GaO$_{6}$,3.6243,eV,,,,,,,
Tb$_{3}$GaO$_{6}$,3.6053999999999995,eV,,,,,,,
Dy$_{3}$GaO$_{6}$,3.5851999999999995,eV,,,,,,,
Ho$_{3}$GaO$_{6}$,3.5583,eV,,,,,,,
Er$_{3}$GaO$_{6}$,3.5359,eV,,,,,,,
LaScO$_{3}$,3.8831000000000007,eV,,,,,,,
NdScO$_{3}$,4.2936,eV,,,,,,,
SmScO$_{3}$,4.3579,eV,,,,,,,
TbScO$_{3}$,4.436,eV,,,,,,,
DyScO$_{3}$,4.4572,eV,,,,,,,
HoScO$_{3}$,4.4724,eV,,,,,,,
Zr$_{2}$Cr$_{4}$Si$_{5}$,0.0,eV,,,,,,,
Sr$_{3}$P$_{4}$O$_{13}$,5.2118,eV,,,,,,,
ErNi$_{7}$B$_{3}$,0,eV,,,,,,,
Hg$_{4}$OF$_{6}$,0.1975,eV,,,,,,,
PtCl$_{3}$,1.0698,eV,,,,,,,
Si$_{19}$Te$_{8}$,0.8865999999999996,eV,,,,,,,
Lu$_{2}$NiSn$_{6}$,0.0,eV,,,,,,,
MnPd$_{3}$,0.0,eV,,,,,,,
TbNi,0.0,eV,,,,,,,
BaBiAu,0.0,eV,,,,,,,
SrBiAu,0.0,eV,,,,,,,
YbBiAu,0.0,eV,,,,,,,
Er$_{2}$SnAu$_{2}$,0.0,eV,,,,,,,
Rb$_{3}$Au$_{7}$,0.009400000000000297,eV,,,,,,,
BaCuBi,0.016600000000000392,eV,,,,,,,
BaZnSi,0.0,eV,,,,,,,
BaZnSn,0.04300000000000015,eV,,,,,,,
Ca$_{3}$BiN,0.3732999999999995,eV,,,,,,,
Sr$_{2}$Bi$_{3}$,0.03110000000000035,eV,,,,,,,
CaGaPt,0.029300000000000104,eV,,,,,,,
CaGePt,0.0,eV,,,,,,,
Ca$_{5}$Hg$_{3}$,0.0028999999999999027,eV,,,,,,,
Ca$_{3}$SbN,0.0,eV,,,,,,,
Ca$_{7}$Ni$_{4}$Sn$_{13}$,0.0,eV,,,,,,,
CaZnSn,0.0,eV,,,,,,,
Ce$_{2}$Si$_{3}$Rh,0.0,eV,,,,,,,
Ce$_{7}$Ru$_{3}$,0.0,eV,,,,,,,
DyTlS$_{2}$,1.5297,eV,,,,,,,
Er$_{5}$Si$_{3}$,0.0,eV,,,,,,,
Li$_{2}$AlAg,0.0,eV,,,,,,,
ScAlAg$_{2}$,0.0,eV,,,,,,,
Cd$_{2}$AgAu,0.0,eV,,,,,,,
Zn$_{2}$AgAu,0.0,eV,,,,,,,
Ca$_{5}$Ag$_{3}$,0.0,eV,,,,,,,
CeCd$_{2}$Ag,0.0,eV,,,,,,,
CeMg$_{2}$Ag,0.0,eV,,,,,,,
HoNiSn,0.0,eV,,,,,,,
DyAl$_{3}$,0.0,eV,,,,,,,
Ho(Al$_{2}$Fe)$_{4}$,0.0,eV,,,,,,,
Mg$_{3}$TeO$_{6}$,2.9101000000000004,eV,,,,,,,
DyAl$_{4}$Ni,0.0,eV,,,,,,,
Er$_{3}$Al$_{2}$,0.0,eV,,,,,,,
ErAl$_{2}$Ni,0.0,eV,,,,,,,
ErAl$_{4}$Ni,0.0,eV,,,,,,,
AlFe$_{2}$,0.0,eV,,,,,,,
MnAlFe$_{2}$,0.0,eV,,,,,,,
AlFe$_{2}$Ni,0.0,eV,,,,,,,
TiAlFe$_{2}$,0.0,eV,,,,,,,
DyBe$_{13}$,0.0,eV,,,,,,,
NdTiO$_{3}$,0.0,eV,,,,,,,
Lu$_{2}$Ga$_{3}$Co,0.0,eV,,,,,,,
Sc$_{3}$Co$_{2}$Ge$_{3}$,0.0,eV,,,,,,,
Li$_{13}$(Ga$_{7}$Cu$_{2}$)$_{3}$,0.0,eV,,,,,,,
Er(FeSn)$_{6}$,0.005799999999998917,eV,,,,,,,
Er$_{3}$Ru$_{2}$,0.0,eV,,,,,,,
ThIr$_{5}$,0.0,eV,,,,,,,
Tm$_{2}$Cu$_{2}$O$_{5}$,0.30810000000000004,eV,,,,,,,
Pr(SiAu)$_{2}$,0.0,eV,,,,,,,
Pr(SiAg)$_{2}$,0.0,eV,,,,,,,
Nd(SiAg)$_{2}$,0.0,eV,,,,,,,
Zr$_{3}$Fe,0.0,eV,,,,,,,
Zr$_{5}$GaSn$_{3}$,0.0,eV,,,,,,,
LiIn$_{2}$Ir,0.0,eV,,,,,,,
Ca(BeGe)$_{2}$,0.0,eV,,,,,,,
K$_{2}$MgF$_{4}$,6.405900000000001,eV,,,,,,,
Sr$_{4}$Ti$_{3}$O$_{10}$,1.7813000000000003,eV,,,,,,,
Ti$_{3}$P,0.0,eV,,,,,,,
AgPdF$_{6}$,0.2169000000000001,eV,,,,,,,
BaCd$_{11}$,0.0,eV,,,,,,,
Cu$_{8}$O,0.0,eV,,,,,,,
Si$_{3}$W$_{5}$,0.0,eV,,,,,,,
AlSiTe$_{3}$,1.2504,eV,,,,,,,
ThMn$_{12}$,0.0,eV,,,,,,,
Th$_{6}$Mn$_{23}$,0.002300000000000857,eV,,,,,,,
Pr$_{2}$Mo$_{2}$C$_{3}$,0.0,eV,,,,,,,
Na$_{4}$(BSe)$_{9}$,2.206,eV,,,,,,,
PPdSe,0.9677000000000002,eV,,,,,,,
Sr$_{5}$Mo$_{2}$N$_{7}$,1.2875999999999999,eV,,,,,,,
In$_{2}$PO$_{5}$,2.111999999999999,eV,,,,,,,
Ca$_{4}$P$_{7}$Ir$_{8}$,0.0,eV,,,,,,,
Ca$_{4}$As$_{7}$Ir$_{8}$,0.0,eV,,,,,,,
BaNaBi,0.2354999999999996,eV,,,,,,,
CuAsF$_{7}$,0.010300000000000198,eV,,,,,,,
Ba$_{3}$(SbO$_{3}$)$_{2}$,2.9311,eV,,,,,,,
BaAs$_{2}$,0.41490000000000027,eV,,,,,,,
Tb$_{2}$Te$_{4}$O$_{11}$,2.9506,eV,,,,,,,
Eu$_{2}$Te$_{4}$O$_{11}$,0.0015000000000000568,eV,,,,,,,
Ce$_{2}$Te$_{4}$O$_{11}$,0.0,eV,,,,,,,
La$_{2}$Te$_{4}$O$_{11}$,3.3342,eV,,,,,,,
K$_{3}$Zn$_{2}$F$_{7}$,4.0269,eV,,,,,,,
BiBO$_{3}$,3.0021999999999998,eV,,,,,,,
Ga(SbCl)$_{4}$,2.0139,eV,,,,,,,
La$_{5}$(AlBr)$_{4}$,0.0,eV,,,,,,,
Ga$_{2}$Ir,0.005799999999999805,eV,,,,,,,
U(SbO$_{3}$)$_{2}$,1.2887000000000004,eV,,,,,,,
Mo$_{15}$S$_{19}$,0.0,eV,,,,,,,
Pr$_{2}$MoC$_{2}$,0.0,eV,,,,,,,
Bi(IO$_{3}$)$_{3}$,2.8849,eV,,,,,,,
In$_{5}$S$_{5}$Cl,1.1671999999999993,eV,,,,,,,
YPS$_{4}$,2.1327,eV,,,,,,,
AlBiBr$_{6}$,2.5681,eV,,,,,,,
Na$_{2}$S$_{2}$O$_{7}$,5.0852,eV,,,,,,,
RbCO$_{3}$,3.9416,eV,,,,,,,
P$_{2}$O$_{9}$,3.0888,eV,,,,,,,
La$_{2}$CuS$_{4}$,1.6292,eV,,,,,,,
Ba(TeP$_{2}$)$_{2}$,1.1654999999999998,eV,,,,,,,
Cd$_{2}$PCl$_{2}$,1.5489000000000002,eV,,,,,,,
Sn$_{4}$Ir,0.0,eV,,,,,,,
Ca$_{3}$(Bi$_{2}$Pd)$_{4}$,0.0,eV,,,,,,,
Rb$_{4}$P$_{21}$I,1.4266999999999999,eV,,,,,,,
ErCoSi$_{2}$,0.0,eV,,,,,,,
K$_{4}$P$_{21}$I,1.3384,eV,,,,,,,
SrSnAu,0.0,eV,,,,,,,
NaSn$_{5}$,0.0,eV,,,,,,,
Cs$_{2}$PdSe$_{8}$,1.2163,eV,,,,,,,
K$_{3}$Bi,0.02499999999999991,eV,,,,,,,
Tl$_{3}$PdBr$_{5}$,1.3457999999999999,eV,,,,,,,
La$_{5}$Pb$_{3}$I,0.0,eV,,,,,,,
Bi$_{5}$NO$_{10}$,2.6161,eV,,,,,,,
ScSi$_{3}$Ni,0.0,eV,,,,,,,
Rb$_{2}$PdSe$_{16}$,0.8510000000000002,eV,,,,,,,
Eu$_{2}$Sn$_{5}$Au$_{2}$,0.008299999999999308,eV,,,,,,,
Sr$_{2}$In$_{3}$Rh$_{2}$,0.0,eV,,,,,,,
La$_{3}$(Sn$_{3}$Pd$_{2}$)$_{2}$,0.0,eV,,,,,,,
ScInPt,0.0,eV,,,,,,,
ErSnRh,0.0,eV,,,,,,,
YC$_{2}$,0.0,eV,,,,,,,
LiSn$_{4}$Au$_{3}$,0.0,eV,,,,,,,
KCO$_{3}$,4.1733,eV,,,,,,,
Pr$_{4}$Se$_{3}$N$_{2}$,1.3761999999999999,eV,,,,,,,
Zr(TeCl)$_{6}$,1.0257999999999998,eV,,,,,,,
Hf(TeCl)$_{6}$,1.0245000000000002,eV,,,,,,,
C$_{2}$O$_{3}$F$_{2}$,5.2829,eV,,,,,,,
Ba$_{2}$SnSe$_{5}$,1.2081,eV,,,,,,,
KTaS$_{5}$,1.5866000000000002,eV,,,,,,,
RbInSe$_{2}$,1.4736999999999998,eV,,,,,,,
Zr$_{3}$(Mn$_{2}$Si$_{3}$)$_{2}$,0.0,eV,,,,,,,
Ga$_{9}$Ir$_{2}$,0.0,eV,,,,,,,
Ga$_{9}$Rh$_{2}$,0.0,eV,,,,,,,
K$_{3}$PSe$_{4}$,1.8281999999999998,eV,,,,,,,
K$_{2}$PSe$_{3}$,1.9738999999999998,eV,,,,,,,
La$_{3}$PbI$_{3}$,0.0,eV,,,,,,,
Nd$_{2}$TeO$_{6}$,3.1178,eV,,,,,,,
Nd(C$_{2}$N$_{3}$)$_{3}$,3.5983,eV,,,,,,,
La(C$_{2}$N$_{3}$)$_{3}$,3.5544000000000002,eV,,,,,,,
La$_{6}$OsI$_{10}$,0.0,eV,,,,,,,
Li$_{2}$In,0.0,eV,,,,,,,
Mg$_{2}$In,0.0,eV,,,,,,,
MnInPd$_{2}$,0.0,eV,,,,,,,
NdInRh,0.0,eV,,,,,,,
ScInPd$_{2}$,0.0,eV,,,,,,,
YInRh,0.0,eV,,,,,,,
Sc$_{2}$In,0.0,eV,,,,,,,
Sr$_{3}$In,0.0,eV,,,,,,,
Er$_{2}$(SeO$_{3}$)$_{3}$,3.9484999999999997,eV,,,,,,,
La$_{3}$OsO$_{7}$,0.09469999999999956,eV,,,,,,,
Pr$_{3}$OsO$_{7}$,0.0,eV,,,,,,,
Sr$_{3}$Tl$_{2}$O$_{6}$,0.7726000000000002,eV,,,,,,,
Sr$_{3}$MoN$_{4}$,2.2289,eV,,,,,,,
RbBO$_{2}$,3.9289,eV,,,,,,,
NaNbO$_{3}$,1.5331,eV,,,,,,,
K$_{2}$Ta$_{3}$Cl$_{9}$,1.4543000000000004,eV,,,,,,,
EuIBr,0.9729999999999999,eV,,,,,,,
Na$_{3}$YCl$_{6}$,5.1809,eV,,,,,,,
K$_{2}$TaCl$_{6}$,0.0,eV,,,,,,,
Ce(Al$_{5}$Ru)$_{2}$,0.0,eV,,,,,,,
LiClO$_{2}$,2.6926,eV,,,,,,,
KClO$_{2}$,2.3095,eV,,,,,,,
Gd$_{2}$B$_{4}$O$_{9}$,2.8237,eV,,,,,,,
Na$_{2}$S$_{2}$O$_{5}$,3.2695,eV,,,,,,,
H$_{18}$SO$_{12}$,5.218999999999999,eV,,,,,,,
H$_{30}$S$_{2}$O$_{21}$,5.2561,eV,,,,,,,
Zr$_{2}$Sb,0.0,eV,,,,,,,
Na$_{8}$SnSb$_{4}$,0.2682000000000002,eV,,,,,,,
SmPd,0.0,eV,,,,,,,
Nb$_{21}$S$_{8}$,0.0,eV,,,,,,,
Hf$_{6}$CoBi$_{2}$,0.0,eV,,,,,,,
Er$_{5}$Sn$_{3}$,0.0,eV,,,,,,,
HoGaPd,0.0,eV,,,,,,,
ErGaPd,0.0,eV,,,,,,,
Ca$_{7}$Sn$_{6}$,0.03770000000000007,eV,,,,,,,
Th$_{3}$Ge$_{2}$,0.0,eV,,,,,,,
Sm$_{2}$GeRh$_{3}$,0.007299999999999862,eV,,,,,,,
Al$_{39}$Fe$_{7}$Cu$_{24}$,0.028900000000000148,eV,,,,,,,
Mg$_{5}$Si$_{6}$,0.0,eV,,,,,,,
Mg$_{4}$AlSi$_{6}$,0.0,eV,,,,,,,
Bi$_{2}$TeSe$_{2}$,0.9267000000000003,eV,,,,,,,
Ba$_{5}$In$_{4}$Bi$_{5}$,0.0,eV,,,,,,,
Al$_{4}$(B$_{2}$O$_{5}$)$_{3}$,5.8172999999999995,eV,,,,,,,
ErInRh,0.0,eV,,,,,,,
Th(Al$_{2}$Cr)$_{4}$,0.0,eV,,,,,,,
PrSnAu,0.0,eV,,,,,,,
TbSnAu,0.0,eV,,,,,,,
DySnAu,0.0,eV,,,,,,,
La$_{3}$TaO$_{7}$,3.4556000000000004,eV,,,,,,,
Ho$_{3}$TaO$_{7}$,3.4507,eV,,,,,,,
Nd$_{3}$TaO$_{7}$,3.4829,eV,,,,,,,
La(SbO$_{3}$)$_{3}$,1.4863999999999997,eV,,,,,,,
LaSb$_{5}$O$_{12}$,3.0498000000000003,eV,,,,,,,
Ca(NO$_{3}$)$_{2}$,3.6222,eV,,,,,,,
CeAgSn,0.0,eV,,,,,,,
PrAgSn,0.0,eV,,,,,,,
TbAgSn,0.0,eV,,,,,,,
Ho$_{3}$(SiCu)$_{4}$,0.0,eV,,,,,,,
HoInNi,0.0,eV,,,,,,,
ErInNi,0.0,eV,,,,,,,
UGa$_{3}$Ni,0.0,eV,,,,,,,
Na$_{2}$SO$_{4}$,4.9638,eV,,,,,,,
Na$_{2}$In,0.0,eV,,,,,,,
LuNiSn$_{4}$,0.011299999999999422,eV,,,,,,,
Np$_{3}$Al,0.0,eV,,,,,,,
TbGe$_{2}$Pd,0.0,eV,,,,,,,
YZrSb,0.0,eV,,,,,,,
HoNbO$_{4}$,3.5324999999999998,eV,,,,,,,
LuZrSb,0.0,eV,,,,,,,
Li$_{2}$GaIr,0.0,eV,,,,,,,
Li$_{2}$InRh,0.0,eV,,,,,,,
Li$_{2}$InIr,0.0,eV,,,,,,,
TbAgPb,0.0,eV,,,,,,,
HoAgPb,0.0,eV,,,,,,,
ZrCoBi,0.9771999999999998,eV,,,,,,,
ZrNiBi,0.0,eV,,,,,,,
NbSbRh,0.0,eV,,,,,,,
TaSbRu,0.6669,eV,,,,,,,
VSbRu,0.21609999999999996,eV,,,,,,,
HfSbRu,0.0,eV,,,,,,,
ZrSbRu,0.0,eV,,,,,,,
TiSbRu,0.0,eV,,,,,,,
TaCoSb,0.0,eV,,,,,,,
NbCoSb,0.0,eV,,,,,,,
Er$_{5}$BiPt$_{2}$,0.0,eV,,,,,,,
Tb$_{5}$Bi$_{3}$,0.0,eV,,,,,,,
Dy$_{5}$Bi$_{3}$,0.0,eV,,,,,,,
Ho$_{5}$Bi$_{3}$,0.0,eV,,,,,,,
Er$_{5}$Bi$_{3}$,0.0,eV,,,,,,,
Ga$_{3}$Pd$_{7}$,0.0,eV,,,,,,,
LiCaN,1.3784999999999998,eV,,,,,,,
Hf$_{5}$CuSn$_{3}$,0.0,eV,,,,,,,
Er(SiAu)$_{2}$,0.0,eV,,,,,,,
Na$_{4}$TlAu,0.0,eV,,,,,,,
K$_{3}$PbAu$_{5}$,0.0,eV,,,,,,,
Rb$_{5}$Hg$_{19}$,0.0,eV,,,,,,,
K$_{2}$Hg$_{7}$,0.0,eV,,,,,,,
Rb$_{2}$Hg$_{7}$,0.0,eV,,,,,,,
Er$_{4}$(Al$_{8}$Pt$_{3}$)$_{3}$,0.0,eV,,,,,,,
CsHC$_{2}$,4.5867,eV,,,,,,,
Ca$_{3}$(GaPt)$_{2}$,0.0,eV,,,,,,,
Dy(SiPt)$_{2}$,0.0,eV,,,,,,,
Ca$_{3}$(GaPd)$_{2}$,0.0,eV,,,,,,,
Ca$_{3}$Ga$_{3}$Ir$_{2}$,0.0,eV,,,,,,,
Na$_{5}$TlSn$_{3}$,0.05259999999999998,eV,,,,,,,
K$_{4}$GaAu$_{8}$,0.0,eV,,,,,,,
Ga$_{5}$Pd$_{13}$,0.0,eV,,,,,,,
K$_{2}$SnBi,0.0,eV,,,,,,,
NbI$_{5}$,0.5982999999999998,eV,,,,,,,
Li$_{3}$NbO$_{4}$,3.7757,eV,,,,,,,
PNF$_{2}$,5.2371,eV,,,,,,,
Sm(GePd)$_{2}$,0.0,eV,,,,,,,
CeGaNi,0.0,eV,,,,,,,
RbGa$_{3}$,0.14719999999999978,eV,,,,,,,
AgTe$_{2}$Au,0.0,eV,,,,,,,
Li$_{2}$Sn$_{2}$Au,0.0,eV,,,,,,,
BaPt,0.0,eV,,,,,,,
Mg$_{29}$Ir$_{4}$,0.0,eV,,,,,,,
PbF$_{2}$,4.395099999999999,eV,,,,,,,
ScCd$_{7}$,0.0,eV,,,,,,,
Mg$_{9}$Sn$_{5}$,0.0,eV,,,,,,,
Mg$_{32}$Al$_{36}$Ag$_{13}$,0.0,eV,,,,,,,
Sb$_{2}$Te$_{4}$Pb,0.26730000000000054,eV,,,,,,,
KPb$_{2}$Br$_{5}$,3.0729,eV,,,,,,,
BaIn,0.0,eV,,,,,,,
Li$_{3}$TaO$_{4}$,4.5667,eV,,,,,,,
NbCuTe$_{2}$,0.0,eV,,,,,,,
Sr$_{2}$CoReO$_{6}$,0,eV,,,,,,,
Co(ReO$_{4}$)$_{2}$,0.0,eV,,,,,,,
Ta$_{2}$CoO$_{6}$,2.5215000000000005,eV,,,,,,,
LiCoP$_{2}$O$_{7}$,0.8513999999999999,eV,,,,,,,
CoB$_{4}$O$_{7}$,3.1117,eV,,,,,,,
CoPO$_{4}$,0.6588000000000003,eV,,,,,,,
Na$_{5}$CoO$_{4}$,1.4522000000000002,eV,,,,,,,
K$_{2}$Co$_{2}$(SO$_{4}$)$_{3}$,2.7184,eV,,,,,,,
CoHO$_{2}$,0.0,eV,,,,,,,
CoP$_{2}$O$_{7}$,0.0,eV,,,,,,,
Na$_{4}$Ge$_{9}$O$_{20}$,0.0,eV,,,,,,,
Co$_{10}$Ge$_{3}$O$_{16}$,0.0343,eV,,,,,,,
Li$_{8}$CoO$_{6}$,1.0757999999999999,eV,,,,,,,
CoPO$_{4}$,0.8034999999999999,eV,,,,,,,
LiCoP$_{2}$O$_{7}$,0.9195,eV,,,,,,,
LiCoPO$_{4}$,2.9335,eV,,,,,,,
Li$_{4}$Co(PO$_{4}$)$_{2}$,3.2951,eV,,,,,,,
Sm$_{3}$Sb$_{5}$O$_{12}$,3.1334,eV,,,,,,,
LiCoPO$_{4}$,2.6999,eV,,,,,,,
LiCoPO$_{4}$,2.9248000000000003,eV,,,,,,,
LiCoP$_{2}$O$_{7}$,0.9057000000000001,eV,,,,,,,
Li$_{2}$CoP$_{2}$O$_{7}$,2.8434999999999997,eV,,,,,,,
Sc$_{3}$FeC$_{4}$,0.0,eV,,,,,,,
Co(PO$_{3}$)$_{4}$,0.0,eV,,,,,,,
Co$_{3}$(PO$_{4}$)$_{4}$,0.0,eV,,,,,,,
CoP$_{2}$O$_{7}$,0,eV,,,,,,,
LiCoPO$_{4}$,3.0934000000000004,eV,,,,,,,
Co$_{3}$(PO$_{4}$)$_{4}$,0.008,eV,,,,,,,
LiCoP$_{2}$O$_{7}$,0.9979999999999999,eV,,,,,,,
LiCo$_{6}$P$_{7}$O$_{24}$,2.8232000000000004,eV,,,,,,,
Li$_{2}$Co(PO$_{3}$)$_{4}$,3.154,eV,,,,,,,
LiCoP$_{2}$O$_{7}$,0.7988,eV,,,,,,,
Co(PO$_{3}$)$_{3}$,0.9667,eV,,,,,,,
LiCo$_{3}$(P$_{3}$O$_{10}$)$_{2}$,0.9605,eV,,,,,,,
LiCoP$_{2}$O$_{7}$,1.1016000000000001,eV,,,,,,,
Co(PO$_{3}$)$_{4}$,0.35630000000000006,eV,,,,,,,
LiCo$_{2}$P$_{5}$O$_{16}$,1.1541,eV,,,,,,,
Na$_{3}$CoO$_{2}$,1.3483,eV,,,,,,,
K$_{3}$CoO$_{2}$,1.5331000000000001,eV,,,,,,,
Rb$_{3}$CoO$_{2}$,1.3335000000000001,eV,,,,,,,
Li$_{3}$Co(PO$_{4}$)$_{2}$,0.8124,eV,,,,,,,
Li$_{2}$SbPt,0.0,eV,,,,,,,
Li$_{2}$CoP$_{2}$O$_{7}$,2.9940999999999995,eV,,,,,,,
LiCo(PO$_{3}$)$_{4}$,0.8144,eV,,,,,,,
CoP$_{2}$O$_{7}$,0.025799999999999823,eV,,,,,,,
LiCo(PO$_{3}$)$_{3}$,3.0315,eV,,,,,,,
Na$_{3}$CoO$_{3}$,1.7507,eV,,,,,,,
LiCoPO$_{4}$,0.7424999999999997,eV,,,,,,,
Al$_{2}$CdSe$_{4}$,2.0046999999999997,eV,,,,,,,
LiCoPO$_{4}$,2.7419999999999995,eV,,,,,,,
Li$_{3}$Co$_{3}$(PO$_{4}$)$_{4}$,1.1451000000000002,eV,,,,,,,
Na$_{4}$CoO$_{4}$,1.3568999999999998,eV,,,,,,,
LiCoPO$_{4}$,2.6302,eV,,,,,,,
Li$_{3}$Co$_{2}$(PO$_{4}$)$_{3}$,1.1782,eV,,,,,,,
CoReO$_{4}$,0,eV,,,,,,,
Co$_{3}$(P$_{3}$O$_{10}$)$_{2}$,0.1933,eV,,,,,,,
MnV,0.0,eV,,,,,,,
Pr$_{2}$Si$_{2}$O$_{7}$,4.8385,eV,,,,,,,
LiCo(PO$_{3}$)$_{4}$,0.874,eV,,,,,,,
LiCo$_{2}$(PO$_{4}$)$_{3}$,0.0,eV,,,,,,,
LiCo(PO$_{3}$)$_{4}$,1.2302,eV,,,,,,,
Li$_{2}$CoP$_{2}$O$_{7}$,3.1026,eV,,,,,,,
LiCo(PO$_{3}$)$_{4}$,1.1430000000000002,eV,,,,,,,
Li$_{3}$Co$_{3}$(PO$_{4}$)$_{4}$,0.8463999999999999,eV,,,,,,,
LiAlSi,0.11209999999999987,eV,,,,,,,