formula,Property Band Gap,Property Band Gap units,Property Band gap,Property Band gap units,Temperature (Property Band gap),Temperature (Property Band gap) units,Property Color,Temperature (Property Color),Temperature (Property Color) units
Cs$_{2}$Pd$_{3}$Se$_{4}$,1.0613,eV,,,,,,,
Rb$_{2}$Pd$_{3}$S$_{4}$,1.1973999999999998,eV,,,,,,,
As$_{3}$W$_{2}$,0.0,eV,,,,,,,
TaSb$_{2}$,0.0,eV,,,,,,,
Tb,0.0259999999999998,eV,,,,,,,
SnS$_{2}$,1.5585999999999998,eV,,,,,,,
BaCuSb,0,eV,,,,,,,
YbCuSb,0.0,eV,,,,,,,
KSbS$_{2}$,1.5969000000000002,eV,,,,,,,
Dy$_{2}$Fe$_{2}$Si$_{2}$C,0.005799999999999805,eV,,,,,,,
Ho$_{2}$HgO$_{4}$,2.0919,eV,,,,,,,
Sm(BO$_{2}$)$_{3}$,5.469099999999999,eV,,,,,,,
Gd(BO$_{2}$)$_{3}$,2.7361000000000004,eV,,,,,,,
SiC,1.953100000000001,eV,,,,,,,
SiC,2.2226000000000017,eV,,,,,,,
MgSn(BO$_{3}$)$_{2}$,3.6229999999999998,eV,,,,,,,
RbF,5.5244,eV,,,,,,,
K$_{4}$ZnP$_{2}$,0.9457,eV,,,,,,,
MgRh,0.0,eV,,,,,,,
PrGe$_{2}$,0.0,eV,,,,,,,
ErNiC$_{2}$,0,eV,,,,,,,
CO$_{2}$,6.4318,eV,,,,,,,
LaSi$_{4}$Ni$_{9}$,0.0,eV,,,,,,,
Lu$_{3}$InN,0.0,eV,,,,,,,
Sr$_{2}$MgReO$_{6}$,0.0,eV,,,,,,,
ZrSiO$_{4}$,4.0306,eV,,,,,,,
Li$_{4}$SiO$_{4}$,4.7841000000000005,eV,,,,,,,
Na$_{3}$PS$_{3}$O,2.8296,eV,,,,,,,
KLaTe$_{2}$,1.7012999999999994,eV,,,,,,,
MgSc,0.0,eV,,,,,,,
KNdTe$_{2}$,1.2648000000000001,eV,,,,,,,
CsNdTe$_{2}$,1.2919999999999998,eV,,,,,,,
LiYGa$_{4}$,0.0,eV,,,,,,,
Tm$_{5}$(SiSb)$_{2}$,0.0,eV,,,,,,,
SrS$_{3}$,1.0703,eV,,,,,,,
Ti$_{6}$Si$_{2}$B,0.0,eV,,,,,,,
Lu$_{7}$(NiTe)$_{2}$,0.0,eV,,,,,,,
Lu$_{7}$(TePd)$_{2}$,0.0,eV,,,,,,,
Sc$_{6}$Te$_{2}$Os,0.0,eV,,,,,,,
Lu$_{6}$Sb$_{2}$Mo,0.0,eV,,,,,,,
TbTe,0.0,eV,,,,,,,
ErCd$_{2}$Cu,0.0,eV,,,,,,,
HoSnPd,0.0,eV,,,,,,,
Ti$_{5}$Se$_{4}$,0.0,eV,,,,,,,
CoSi(CuS$_{2}$)$_{2}$,0.0,eV,,,,,,,
CoCu$_{2}$SnS$_{4}$,0.0,eV,,,,,,,
CoCu$_{2}$SnSe$_{4}$,0.0,eV,,,,,,,
Ba$_{3}$Ti$_{3}$(BO$_{6}$)$_{2}$,2.1313,eV,,,,,,,
Nd$_{3}$GaO$_{6}$,3.6475999999999997,eV,,,,,,,
RbUO$_{3}$,0.45230000000000015,eV,,,,,,,
ThMnSe$_{3}$,0.0,eV,,,,,,,
YbLaSe$_{3}$,0.0,eV,,,,,,,
YbPrSe$_{3}$,0.0,eV,,,,,,,
YbNdSe$_{3}$,0.0,eV,,,,,,,
YbSmSe$_{3}$,0.0,eV,,,,,,,
DyNi$_{5}$,0.0,eV,,,,,,,
LaCuSe$_{2}$,0.8799000000000001,eV,,,,,,,
CeCuSe$_{2}$,0.0,eV,,,,,,,
PrCuSe$_{2}$,0.7445999999999993,eV,,,,,,,
SmCuSe$_{2}$,0.7755999999999998,eV,,,,,,,
AlAgO$_{2}$,0.8241,eV,,,,,,,
Fe$_{3}$Pt,0.0,eV,,,,,,,
PrNi,0.0,eV,,,,,,,
P,3.605,eV,,,,,,,
MnPt$_{3}$,0.0,eV,,,,,,,
Co$_{3}$Se$_{4}$,0,eV,,,,,,,
K$_{3}$N,0.0,eV,,,,,,,
LiMgSnPt,0.0,eV,,,,,,,
LiPt,0.04999999999999982,eV,,,,,,,
ScNi$_{4}$Sn,0.0,eV,,,,,,,
TiAl$_{2}$,0.0,eV,,,,,,,
CaGaAu,0.0,eV,,,,,,,
Rb$_{2}$Au$_{3}$,0.0,eV,,,,,,,
SrSbAu,0.0,eV,,,,,,,
BaCdGe,0.0,eV,,,,,,,
BaZnGe,0,eV,,,,,,,
BaSnHg,0.07679999999999998,eV,,,,,,,
DySi,0.0,eV,,,,,,,
BaNa$_{2}$,0.00969999999999982,eV,,,,,,,
Ca$_{3}$GeN,0.0,eV,,,,,,,
Ca$_{3}$PN,0.8045999999999998,eV,,,,,,,
CaPd$_{5}$,0.0,eV,,,,,,,
YbZnSn,0.0,eV,,,,,,,
UCuGe,0.0,eV,,,,,,,
CuNiSb$_{2}$,0.0,eV,,,,,,,
ErSbPd,0.2096,eV,,,,,,,
GdSbPt,0.3258000000000001,eV,,,,,,,
La$_{2}$C$_{3}$,0.0,eV,,,,,,,
BaAg,0.0,eV,,,,,,,
CeAg,0.0,eV,,,,,,,
DyAl,0.0,eV,,,,,,,
Ho$_{6}$GaCo$_{2}$,0.0,eV,,,,,,,
Pr(AlZn)$_{2}$,0.0,eV,,,,,,,
VRh$_{3}$,0.0,eV,,,,,,,
ErCoSn,0.0,eV,,,,,,,
NdCu$_{2}$,0.0,eV,,,,,,,
Er$_{5}$Ge$_{3}$,0.0,eV,,,,,,,
ErMn$_{2}$,0.0,eV,,,,,,,
La(SiAu)$_{2}$,0.0,eV,,,,,,,
ZrS$_{2}$,1.0478000000000003,eV,,,,,,,
HoMnGa,0.0,eV,,,,,,,
HfSnPd,0.38400000000000034,eV,,,,,,,
ThIr$_{2}$,0.0,eV,,,,,,,
Hg$_{2}$Rh,0.0,eV,,,,,,,
HoNi,0.0,eV,,,,,,,
Ag$_{2}$O$_{3}$,0.0,eV,,,,,,,
TlAsPd$_{5}$,0.0,eV,,,,,,,
CO,6.1315,eV,,,,,,,
BaNiSn$_{3}$,0.0,eV,,,,,,,
TiCuHg$_{2}$,0.03730000000000011,eV,,,,,,,
MgIr$_{2}$,0.0,eV,,,,,,,
K$_{2}$U$_{3}$(TeO$_{7}$)$_{2}$,1.8406,eV,,,,,,,
PrAl$_{2}$,0.0,eV,,,,,,,
NaNd$_{2}$RuO$_{6}$,0.0,eV,,,,,,,
K$_{2}$Pd(CN)$_{4}$,3.8847,eV,,,,,,,
Se,0.0,eV,,,,,,,
ZnSe,1.1693,eV,,,,,,,
Ba$_{2}$GeSe$_{4}$,1.4002000000000001,eV,,,,,,,
Eu$_{2}$LiIrO$_{6}$,0.0,eV,,,,,,,
LiSm$_{2}$IrO$_{6}$,0.0,eV,,,,,,,
LiNd$_{2}$IrO$_{6}$,0.0,eV,,,,,,,
LiPr$_{2}$IrO$_{6}$,0.0,eV,,,,,,,
Lu$_{5}$Si$_{3}$,0.0,eV,,,,,,,
NaNd$_{2}$IrO$_{6}$,0.0,eV,,,,,,,
NaPr$_{2}$IrO$_{6}$,0.0,eV,,,,,,,
NaLa$_{2}$IrO$_{6}$,0.0,eV,,,,,,,
Mg(BeN)$_{2}$,4.0657000000000005,eV,,,,,,,
Ca(BeN)$_{2}$,2.3869000000000002,eV,,,,,,,
Sr(BeN)$_{2}$,1.8494000000000002,eV,,,,,,,
Rb$_{2}$TaCuS$_{4}$,2.3587,eV,,,,,,,
Rb$_{2}$TaCuSe$_{4}$,2.0000999999999998,eV,,,,,,,
RbTa(CuSe$_{2}$)$_{2}$,1.7333,eV,,,,,,,
Pr$_{2}$AlCo$_{2}$,0.0,eV,,,,,,,
CdPt,0.0,eV,,,,,,,
YbLiGe$_{2}$,0.0,eV,,,,,,,
SmAl$_{4}$Ni,0.0,eV,,,,,,,
LiAlAg$_{2}$,0.0,eV,,,,,,,
Ba$_{3}$P$_{14}$,1.8125,eV,,,,,,,
KHg$_{11}$,0.0,eV,,,,,,,
RbHg$_{11}$,0.0,eV,,,,,,,
CaSn$_{2}$Ir,0.0,eV,,,,,,,
CaSn$_{2}$Pd,0.0,eV,,,,,,,
CaSn$_{2}$Rh,0.0,eV,,,,,,,
Ce$_{2}$CdPt$_{2}$,0.0,eV,,,,,,,
Ce$_{2}$CdPd$_{2}$,0.0,eV,,,,,,,
HoSnRh,0.0,eV,,,,,,,
YbSnRh,0.0,eV,,,,,,,
TmSnRh,0.0,eV,,,,,,,
LiSnAu,0.0,eV,,,,,,,
CsNbF$_{6}$,5.203,eV,,,,,,,
Sr$_{2}$CaTeO$_{6}$,3.2023999999999995,eV,,,,,,,
YMgTl,0.0,eV,,,,,,,
LaMgTl,0.0,eV,,,,,,,
SmMgTl,0.0,eV,,,,,,,
HoMg,0.0051000000000001044,eV,,,,,,,
Pr$_{2}$CdNi$_{2}$,0.0,eV,,,,,,,
Nd$_{2}$CdNi$_{2}$,0.0,eV,,,,,,,
LiLa$_{2}$IrO$_{6}$,0.0,eV,,,,,,,
TbCo$_{5}$,0.0,eV,,,,,,,
Al$_{9}$Ir$_{2}$,0.0,eV,,,,,,,
Er$_{2}$Al$_{3}$Si$_{2}$,0.0,eV,,,,,,,
Tm$_{2}$Al$_{3}$Si$_{2}$,0.0,eV,,,,,,,
CeCdNi$_{4}$,0.0,eV,,,,,,,
HoCdCu$_{4}$,0.0,eV,,,,,,,
ErCdCu$_{4}$,0.0,eV,,,,,,,
YbCdCu$_{4}$,0.0,eV,,,,,,,
Sb$_{2}$Te$_{3}$,0.15499999999999936,eV,,,,,,,
BaSeO$_{4}$,3.6982,eV,,,,,,,
TbKGeS$_{4}$,2.4464,eV,,,,,,,
KPrGeSe$_{4}$,1.6332,eV,,,,,,,
KAg$_{2}$AsO$_{4}$,0.2073999999999998,eV,,,,,,,
Rb$_{2}$SiS$_{3}$,2.8228999999999997,eV,,,,,,,
CeAl$_{4}$Ge$_{2}$Au,0.0,eV,,,,,,,
NdAl$_{4}$Ge$_{2}$Au,0.0,eV,,,,,,,
ErAl$_{4}$Ge$_{2}$Au,0.0,eV,,,,,,,
AgBF$_{4}$,3.3403,eV,,,,,,,
HgB$_{4}$O$_{7}$,1.7956999999999996,eV,,,,,,,
MnSi(CuS$_{2}$)$_{2}$,0.6646000000000001,eV,,,,,,,
RbVSe$_{2}$,0.0,eV,,,,,,,
TaTlSe$_{3}$,0.31020000000000003,eV,,,,,,,
Li$_{2}$CuP,0.0,eV,,,,,,,
TiO,0.0,eV,,,,,,,
Gd$_{2}$Mo$_{2}$C$_{3}$,0.0,eV,,,,,,,
DySbPd,0.0,eV,,,,,,,
Rb$_{3}$Na(RuO$_{4}$)$_{2}$,0.5102,eV,,,,,,,
K$_{3}$Na(RuO$_{4}$)$_{2}$,0.4915999999999998,eV,,,,,,,
Nd$_{2}$Sb,0.0,eV,,,,,,,
Er$_{4}$Sb$_{3}$,0.0,eV,,,,,,,
Cr$_{2}$B$_{3}$,0.0,eV,,,,,,,
LaCd$_{2}$,0.0,eV,,,,,,,
Ba(POs)$_{2}$,0.0,eV,,,,,,,
Er(PRu)$_{2}$,0.0,eV,,,,,,,
Sm(PRu)$_{2}$,0.0,eV,,,,,,,
Nd(AsPd)$_{2}$,0.0,eV,,,,,,,
Lu(FeB)$_{2}$,0.0,eV,,,,,,,
AgB$_{2}$,0.0,eV,,,,,,,
Ce(AgGe)$_{2}$,0.0,eV,,,,,,,
Ag$_{3}$Pt,0.0,eV,,,,,,,
MnAl,0.0,eV,,,,,,,
NdFe$_{2}$,0.0,eV,,,,,,,
CuAs,0.0,eV,,,,,,,
Ti$_{3}$As,0.0,eV,,,,,,,
UAu$_{2}$,0.0,eV,,,,,,,
Ba(BIr)$_{2}$,0.0,eV,,,,,,,
Tb(FeB)$_{2}$,0.0,eV,,,,,,,
Tm(FeB)$_{2}$,0.0,eV,,,,,,,
Y(FeB)$_{2}$,0.0,eV,,,,,,,
K(CoS)$_{2}$,0.0,eV,,,,,,,
ErAl$_{2}$,0.0,eV,,,,,,,
Dy(CrGe)$_{2}$,0.0,eV,,,,,,,
Er(CrSi)$_{2}$,0.0,eV,,,,,,,
CrIr$_{3}$,0.0,eV,,,,,,,
Lu(CrSi)$_{2}$,0.0,eV,,,,,,,
Np(CrSi)$_{2}$,0.0,eV,,,,,,,
Cu$_{3}$Pt,0.0,eV,,,,,,,
Cu$_{2}$S,0.0,eV,,,,,,,
Dy(SiOs)$_{2}$,0.0,eV,,,,,,,
RbAu$_{5}$,0.0,eV,,,,,,,
Tl(FeS)$_{2}$,0.0,eV,,,,,,,
Li$_{2}$SnGe,0.0,eV,,,,,,,
Sm(SiIr)$_{2}$,0.0,eV,,,,,,,
K(PRh)$_{2}$,0.0,eV,,,,,,,
Hg,0.09819999999999984,eV,,,,,,,
ThCd$_{2}$,0.0,eV,,,,,,,
Lu(SiNi)$_{2}$,0.0,eV,,,,,,,
Lu(SiOs)$_{2}$,0.0,eV,,,,,,,
N$_{2}$,1.0556999999999999,eV,,,,,,,
NbSi$_{2}$,0.0,eV,,,,,,,
RbO$_{2}$,0.0,eV,,,,,,,
TiPt$_{3}$,0.0,eV,,,,,,,
VPt$_{2}$,0.0,eV,,,,,,,
ZrRe$_{2}$,0.0,eV,,,,,,,
ScCd,0.0,eV,,,,,,,
TaRu,0.0,eV,,,,,,,
CdP$_{2}$,1.5218000000000003,eV,,,,,,,
PrS$_{2}$,0.0,eV,,,,,,,
InCu$_{2}$,0.0,eV,,,,,,,
Cs(FeSb)$_{2}$,0.0,eV,,,,,,,
Li$_{2}$MgIn,0.0,eV,,,,,,,
LuInPd$_{2}$,0.04319999999999968,eV,,,,,,,
NdSb,0.0,eV,,,,,,,
Ca(ZnSi)$_{2}$,0.0,eV,,,,,,,
VS,0.0,eV,,,,,,,
K$_{2}$BaCu(NO$_{2}$)$_{6}$,0.22440000000000004,eV,,,,,,,
CaB$_{2}$F$_{8}$,8.3113,eV,,,,,,,
Ca$_{3}$Al$_{2}$O$_{6}$,4.2749,eV,,,,,,,
Ti$_{2}$O,0.0,eV,,,,,,,
K$_{3}$Sb$_{5}$O$_{14}$,1.1985000000000001,eV,,,,,,,
Na$_{2}$PO$_{3}$F,4.4907,eV,,,,,,,
YbO,3.4599,eV,,,,,,,
Li$_{6}$Ho(BO$_{3}$)$_{3}$,4.7449,eV,,,,,,,
K$_{2}$SrCu(NO$_{2}$)$_{6}$,0.23960000000000004,eV,,,,,,,
KSi,1.2619000000000002,eV,,,,,,,
La$_{2}$SnS$_{5}$,0.0,eV,,,,,,,
K$_{6}$MgO$_{4}$,1.6783000000000001,eV,,,,,,,
HfNi$_{3}$,0.0,eV,,,,,,,
Y$_{5}$Pt$_{4}$,0.0,eV,,,,,,,
Te$_{2}$O$_{5}$,1.6728999999999998,eV,,,,,,,
KCr$_{5}$S$_{8}$,0.3523000000000005,eV,,,,,,,
NaS$_{2}$,1.9966,eV,,,,,,,
BaSnS$_{2}$,1.6394000000000002,eV,,,,,,,
KB$_{5}$O$_{8}$,5.3412,eV,,,,,,,
LiCu(PO$_{3}$)$_{3}$,0.6669,eV,,,,,,,
Na$_{2}$Mg$_{2}$(Si$_{2}$O$_{5}$)$_{3}$,4.410299999999999,eV,,,,,,,
BaGa$_{2}$,0.0,eV,,,,,,,
La$_{2}$Ti$_{2}$O$_{7}$,2.9285999999999994,eV,,,,,,,
Nd$_{2}$Ti$_{2}$O$_{7}$,2.9231000000000003,eV,,,,,,,
Hg$_{3}$(PO$_{4}$)$_{2}$,1.4042999999999999,eV,,,,,,,
Be$_{5}$Au,0.0,eV,,,,,,,
Ti$_{4}$O$_{7}$,0.0,eV,,,,,,,
V$_{3}$Ge,0.0,eV,,,,,,,
YbP$_{5}$O$_{14}$,0.0,eV,,,,,,,
CrSi$_{2}$,0.36439999999999984,eV,,,,,,,
CaTeO$_{4}$,2.2537,eV,,,,,,,
NaNd(PO$_{3}$)$_{4}$,5.603,eV,,,,,,,
La$_{4}$Sb$_{3}$,0.0,eV,,,,,,,
SnTe$_{3}$O$_{8}$,2.9250999999999996,eV,,,,,,,
ZnB$_{4}$O$_{7}$,4.6601,eV,,,,,,,
Er$_{3}$Ga$_{5}$O$_{12}$,3.3298000000000005,eV,,,,,,,
HoP$_{5}$O$_{14}$,5.233099999999999,eV,,,,,,,
HgO,1.1867,eV,,,,,,,
Na$_{2}$LiBe$_{2}$F$_{7}$,6.9483,eV,,,,,,,
Ca$_{11}$Sb$_{10}$,0.0,eV,,,,,,,
Rb$_{3}$SiF$_{7}$,5.6568,eV,,,,,,,
Cs$_{3}$TiF$_{7}$,2.9901,eV,,,,,,,
Rb$_{3}$TiF$_{7}$,3.037,eV,,,,,,,
CsBeF$_{3}$,6.644299999999999,eV,,,,,,,
LiAuF$_{4}$,2.0738,eV,,,,,,,
YbLiF$_{4}$,0.0,eV,,,,,,,
SrCuF$_{4}$,0.7596999999999999,eV,,,,,,,
CaCuF$_{4}$,0.7140999999999998,eV,,,,,,,
BaCuF$_{4}$,0.0,eV,,,,,,,
MgSeO$_{3}$,4.0013,eV,,,,,,,
LaAl$_{4}$Co,0.0,eV,,,,,,,
SrZnSb$_{2}$,0.0,eV,,,,,,,
CaAgP,0.0045000000000001705,eV,,,,,,,
Li$_{5}$Tl$_{2}$,0.03469999999999995,eV,,,,,,,
Sr$_{2}$Ta$_{2}$O$_{7}$,2.9093,eV,,,,,,,
La$_{3}$NbO$_{7}$,2.7212999999999994,eV,,,,,,,
CuF$_{2}$,0.0,eV,,,,,,,
Sr$_{3}$La$_{2}$(BO$_{3}$)$_{4}$,4.1562,eV,,,,,,,
Nd,0.0,eV,,,,,,,
Sc$_{11}$Ir$_{4}$,0.0,eV,,,,,,,
Sc$_{11}$Os$_{4}$,0.0,eV,,,,,,,
BaCdSnS$_{4}$,2.2956,eV,,,,,,,
Tl$_{2}$Ge$_{2}$S$_{5}$,2.0942,eV,,,,,,,
Cs$_{2}$NaAl$_{3}$F$_{12}$,6.9232,eV,,,,,,,
Cr$_{3}$Ga,0.0,eV,,,,,,,
DyBO$_{3}$,5.3594,eV,,,,,,,
SrCN$_{2}$,3.2055999999999996,eV,,,,,,,
Mo$_{3}$Pt,0.0,eV,,,,,,,
RbGd$_{2}$CuS$_{4}$,1.0162,eV,,,,,,,
NaSm$_{2}$IrO$_{6}$,0.0,eV,,,,,,,
CsVP$_{2}$S$_{7}$,0.0,eV,,,,,,,
YbCsSe$_{2}$,0.0,eV,,,,,,,
CaZn(GeO$_{3}$)$_{2}$,2.471,eV,,,,,,,
Cu$_{6}$Sn$_{5}$,0.0,eV,,,,,,,
KTl(CN)$_{4}$,5.5138,eV,,,,,,,
MnCN$_{2}$,0.2801,eV,,,,,,,
NaLa$_{2}$OsO$_{6}$,0.5168999999999997,eV,,,,,,,
LuAl$_{2}$,0.0,eV,,,,,,,
CsPrZnTe$_{3}$,1.3641,eV,,,,,,,
CsNdZnTe$_{3}$,1.3651,eV,,,,,,,
CsSmZnTe$_{3}$,1.6885,eV,,,,,,,
TiIr,0.0,eV,,,,,,,
SiO$_{2}$,6.1956,eV,,,,,,,
PrTe$_{3}$,0.0,eV,,,,,,,
Sr$_{2}$YTaO$_{6}$,3.8449999999999998,eV,,,,,,,
AgSbTe$_{2}$,0.0,eV,,,,,,,
NdAg,0.0,eV,,,,,,,
AgHg$_{3}$SbO$_{6}$,0.7092999999999998,eV,,,,,,,
BaCu$_{2}$SnSe$_{4}$,0.4240999999999997,eV,,,,,,,
KThCuS$_{3}$,2.0422000000000002,eV,,,,,,,
SbS$_{2}$NF$_{6}$,2.6675,eV,,,,,,,
UGe$_{2}$,0.0,eV,,,,,,,
CaSO$_{4}$,5.9558,eV,,,,,,,
CeSnRh,0.0,eV,,,,,,,
YbKSiS$_{4}$,0.0,eV,,,,,,,
LaSnRh,0.0,eV,,,,,,,
PrSnRh,0.0,eV,,,,,,,
ErSi$_{2}$Ni,0.0,eV,,,,,,,
Sc$_{2}$Te$_{3}$,0.0,eV,,,,,,,
NaEr(PS$_{3}$)$_{2}$,2.5368999999999997,eV,,,,,,,
Ba$_{2}$YTaO$_{6}$,3.4654000000000003,eV,,,,,,,
ErSi$_{3}$Ni,0.0,eV,,,,,,,
YbAsO$_{4}$,0.0,eV,,,,,,,
Er$_{3}$Al$_{3}$NiGe$_{2}$,0.0,eV,,,,,,,
Sb$_{3}$Ir,0.05399999999999938,eV,,,,,,,
Mg(CoGe)$_{6}$,0.0,eV,,,,,,,
HoS,0.0,eV,,,,,,,
LiBF$_{4}$,8.246,eV,,,,,,,
US$_{3}$,0.0,eV,,,,,,,
BaAg$_{2}$,0.0,eV,,,,,,,
TbBa$_{2}$IrO$_{6}$,0.0,eV,,,,,,,
Li$_{2}$ZnGe,0.0,eV,,,,,,,
K(USe$_{3}$)$_{2}$,0.0,eV,,,,,,,
Ba$_{2}$CaReO$_{6}$,0.0,eV,,,,,,,
SrCaGe,0.4478,eV,,,,,,,
CoHgC$_{4}$(SeN)$_{4}$,0.7733,eV,,,,,,,
Sr$_{2}$TaGaO$_{6}$,4.0418,eV,,,,,,,
Ga$_{2}$O$_{3}$,2.4019000000000004,eV,,,,,,,
BaBeF$_{4}$,7.5543000000000005,eV,,,,,,,
NaSnN,0.9178999999999995,eV,,,,,,,
Ho$_{2}$InGe$_{2}$,0.0,eV,,,,,,,
SrGe$_{2}$,0.4211999999999998,eV,,,,,,,
CaAl$_{2}$O$_{4}$,4.8499,eV,,,,,,,
KAuF$_{6}$,2.1117,eV,,,,,,,
SrCuSF,1.5103,eV,,,,,,,
LiSm$_{2}$OsO$_{6}$,0.3960999999999997,eV,,,,,,,
LiPr$_{2}$OsO$_{6}$,0.4064999999999994,eV,,,,,,,
Sr$_{2}$N,0.036599999999999966,eV,,,,,,,
LiNd$_{2}$OsO$_{6}$,0.4066000000000001,eV,,,,,,,
LiLa$_{2}$OsO$_{6}$,0.41439999999999966,eV,,,,,,,
HoCuS$_{2}$,1.6085000000000003,eV,,,,,,,
ErCuS$_{2}$,1.6292999999999997,eV,,,,,,,
TmCuS$_{2}$,1.6565999999999992,eV,,,,,,,
LuCuS$_{2}$,1.6961999999999993,eV,,,,,,,
Ag$_{3}$PS$_{4}$,0.9914000000000001,eV,,,,,,,
Fe$_{4}$C,0.0,eV,,,,,,,
Ni(TePd)$_{2}$,0.0,eV,,,,,,,
Co(PdSe)$_{2}$,0.0,eV,,,,,,,
Co(TePd)$_{2}$,0.0,eV,,,,,,,
Fe(PdSe)$_{2}$,0.0,eV,,,,,,,
Ca$_{5}$Sb$_{3}$,0.0,eV,,,,,,,
LaCd$_{2}$Pd,0.0,eV,,,,,,,
Sb$_{2}$Ir,0.4870000000000001,eV,,,,,,,
ScPPt,0.0,eV,,,,,,,
LaPPt,0.0,eV,,,,,,,
NaSm$_{3}$SiS$_{7}$,2.0169,eV,,,,,,,
CsDyCdTe$_{3}$,1.5476,eV,,,,,,,
CsErCdTe$_{3}$,1.5531999999999995,eV,,,,,,,
MgF$_{2}$,6.824,eV,,,,,,,
CsHoCdTe$_{3}$,1.5502000000000002,eV,,,,,,,
CsLaCdTe$_{3}$,1.7300999999999997,eV,,,,,,,
CsLuCdTe$_{3}$,1.5453999999999994,eV,,,,,,,
CsPrCdTe$_{3}$,1.7913000000000001,eV,,,,,,,
TbCsCdTe$_{3}$,1.5451000000000001,eV,,,,,,,
CsTmCdTe$_{3}$,1.5519999999999996,eV,,,,,,,
CsSmCdTe$_{3}$,1.7393999999999998,eV,,,,,,,
Lu$_{2}$In,0.0,eV,,,,,,,
CeZnPt,0.0,eV,,,,,,,
LuAgSn,0.0,eV,,,,,,,
YZnPO,1.3074000000000003,eV,,,,,,,
VRh,0.0,eV,,,,,,,
LaSnPd,0.0,eV,,,,,,,
LaZnSbO,0.0,eV,,,,,,,
NdZnSbO,0.8324999999999996,eV,,,,,,,
ZrBe$_{2}$,0.0,eV,,,,,,,
SrNi$_{2}$Ge,0.0,eV,,,,,,,
SrNi$_{3}$Ge$_{2}$,0.0,eV,,,,,,,
YbPO$_{4}$,0.0,eV,,,,,,,
Al$_{2}$W,0.0,eV,,,,,,,
Sr$_{2}$LiReO$_{6}$,1.6795999999999998,eV,,,,,,,
Ti$_{2}$Te$_{2}$P,0,eV,,,,,,,
BaSe,1.949,eV,,,,,,,
Sn$_{4}$As$_{3}$,0.0,eV,,,,,,,
KAg$_{2}$PS$_{4}$,1.2441,eV,,,,,,,
La$_{2}$Hf$_{2}$O$_{7}$,4.232799999999999,eV,,,,,,,
K$_{2}$ZnTe$_{2}$,2.0535,eV,,,,,,,
Ti$_{2}$GaC,0.0,eV,,,,,,,
LuTe,0,eV,,,,,,,
Ca$_{4}$Hg$_{9}$,0.0,eV,,,,,,,
Dy$_{3}$Pd$_{2}$,0.0,eV,,,,,,,
Ho$_{3}$Pd$_{2}$,0.0,eV,,,,,,,
Er$_{3}$Pd$_{2}$,0.0,eV,,,,,,,
TiCu$_{3}$,0.0,eV,,,,,,,
BaAl$_{9}$Ni$_{2}$,0.0,eV,,,,,,,
AlCuPt$_{2}$,0.0,eV,,,,,,,
PrAl$_{3}$,0.0,eV,,,,,,,
SrCuAs,0.0,eV,,,,,,,
LiMgAs,1.3722999999999996,eV,,,,,,,
MnAsPd$_{2}$,0.0,eV,,,,,,,
HoGa$_{2}$,0.0,eV,,,,,,,
TaAs$_{2}$,0.0,eV,,,,,,,
CeCu$_{5}$Au,8.999999999996788E-4,eV,,,,,,,
ErGeAu,0.0,eV,,,,,,,
LiSbAu,0.0,eV,,,,,,,
MnAu$_{4}$,0.0,eV,,,,,,,
PrB$_{4}$,0.0,eV,,,,,,,
ThB$_{12}$,0.0,eV,,,,,,,
HfBeSi,0.0,eV,,,,,,,
CaPd$_{3}$C,0.0,eV,,,,,,,
Dy$_{2}$C,0.0,eV,,,,,,,
Li$_{2}$CdSn,0.0,eV,,,,,,,
Th$_{2}$CrN$_{3}$,0.0,eV,,,,,,,
CrRh$_{3}$,0.0,eV,,,,,,,
SmCu,0.0,eV,,,,,,,
YbAl$_{3}$,0.0,eV,,,,,,,
ScIr$_{3}$,0.0,eV,,,,,,,
MoRh,0.0,eV,,,,,,,
TaP,0.0,eV,,,,,,,
PrPt$_{3}$,0.0,eV,,,,,,,
PrTl,0.0,eV,,,,,,,
Pt,0.0,eV,,,,,,,
SrPd$_{5}$,0.0,eV,,,,,,,
Pr$_{2}$Tl,0.0,eV,,,,,,,
PrZn$_{5}$,0.0,eV,,,,,,,
ScSnPt,0.0,eV,,,,,,,
ReSi$_{2}$,0.0,eV,,,,,,,
PrPt,0.0,eV,,,,,,,
CuPt$_{7}$,0.0,eV,,,,,,,
LiCa$_{6}$Ge,0.0,eV,,,,,,,
EuZn,0.0,eV,,,,,,,
Ca$_{3}$Ga$_{8}$,0.017900000000000027,eV,,,,,,,
Ba$_{3}$Ag$_{2}$,0.0,eV,,,,,,,
LaNiSn,0.0,eV,,,,,,,
Ca$_{2}$Cu,0.0,eV,,,,,,,
TbBe$_{13}$,0.0,eV,,,,,,,
NdSeF,0.9158,eV,,,,,,,
NdTeF,0.4204000000000008,eV,,,,,,,
SrPdF$_{4}$,1.3251,eV,,,,,,,
BaPdF$_{4}$,1.3729,eV,,,,,,,
U$_{2}$TeO$_{2}$,0.0,eV,,,,,,,
K$_{2}$SrBe$_{2}$F$_{8}$,7.162599999999999,eV,,,,,,,
Nb$_{3}$S$_{4}$,0.0,eV,,,,,,,
URu$_{3}$,0.0,eV,,,,,,,
MgSeO$_{4}$,2.8689999999999998,eV,,,,,,,
SrTcO$_{3}$,0.0,eV,,,,,,,
Mn$_{5}$B$_{2}$P,0.0,eV,,,,,,,
TiAu$_{4}$,0.0,eV,,,,,,,
PRu,0.0,eV,,,,,,,
Ba$_{2}$NdNbO$_{6}$,2.8499999999999996,eV,,,,,,,
CdAu$_{3}$,0.0,eV,,,,,,,
Ba$_{2}$DyNbO$_{6}$,2.8514,eV,,,,,,,
Ba$_{2}$HoNbO$_{6}$,2.8516,eV,,,,,,,
Ba$_{2}$TmNbO$_{6}$,2.8502,eV,,,,,,,
Ba$_{2}$LuNbO$_{6}$,2.8478999999999997,eV,,,,,,,
LiHoO$_{2}$,4.0322000000000005,eV,,,,,,,
EuNbO$_{4}$,0,eV,,,,,,,
TbNbO$_{4}$,3.5134000000000003,eV,,,,,,,
Ti$_{2}$Be$_{17}$,0.0,eV,,,,,,,
MgO,4.444899999999999,eV,,,,,,,
MgPt,0.0,eV,,,,,,,
HfAl$_{2}$,0.0,eV,,,,,,,
Mn$_{2}$Nb,0.0,eV,,,,,,,
Na$_{2}$Se,2.0162,eV,,,,,,,
LuB$_{6}$,0,eV,,,,,,,
Cd$_{3}$In,0.0,eV,,,,,,,
Re$_{24}$Mo$_{5}$,0.0,eV,,,,,,,
Be$_{12}$Au,0.0,eV,,,,,,,
Be$_{12}$Ag,0.0,eV,,,,,,,
Be$_{12}$Pd,0.0,eV,,,,,,,
Tb$_{2}$SO$_{2}$,2.9772000000000003,eV,,,,,,,
Dy$_{2}$SO$_{2}$,3.0076000000000005,eV,,,,,,,
NaC,3.3846,eV,,,,,,,
Ho$_{2}$SO$_{2}$,3.0336000000000003,eV,,,,,,,
Er$_{2}$SO$_{2}$,3.0733,eV,,,,,,,
Yb$_{2}$SO$_{2}$,0.0,eV,,,,,,,
Lu$_{2}$SO$_{2}$,3.0925,eV,,,,,,,
MnAu,0.0,eV,,,,,,,
TaMn$_{2}$,0.0,eV,,,,,,,
LiMnTe$_{2}$,0.0,eV,,,,,,,
NaMnTe$_{2}$,0.0,eV,,,,,,,
LaAl,0.0,eV,,,,,,,
Er$_{2}$InPd$_{2}$,0.0,eV,,,,,,,
SmS,0.0,eV,,,,,,,
Lu$_{2}$InPd$_{2}$,0.0,eV,,,,,,,
Mg$_{2}$Rh,0.0,eV,,,,,,,
CaMg$_{2}$Ni$_{9}$,0.0,eV,,,,,,,
YMgPd,0.0,eV,,,,,,,
Sc(MnSn)$_{6}$,0.0,eV,,,,,,,
Ca$_{3}$Au$_{4}$,0.0,eV,,,,,,,
Dy$_{2}$S$_{3}$,0.5937999999999999,eV,,,,,,,
NbPt$_{3}$,0.0,eV,,,,,,,
NdSn$_{2}$,0.0,eV,,,,,,,
PrZnNi,0.0,eV,,,,,,,
TbGaPd,0.0,eV,,,,,,,
Zr$_{2}$Np,0.0,eV,,,,,,,
PrZnPd,0.0,eV,,,,,,,
Zr$_{3}$Pd$_{4}$,0.0,eV,,,,,,,
LiTlPd$_{2}$,0.0,eV,,,,,,,
U$_{3}$Sn$_{13}$Rh$_{4}$,0.0011999999999989797,eV,,,,,,,
LiPrSn,0.0,eV,,,,,,,
LiNdSn,0.0,eV,,,,,,,
Cr$_{3}$Ru,0.0,eV,,,,,,,
TbAlPd,0.0,eV,,,,,,,
CaAu,0.0,eV,,,,,,,
SrZn,0.0,eV,,,,,,,
NbAgO$_{3}$,1.3296000000000001,eV,,,,,,,
EuTmCuS$_{3}$,0.2505999999999995,eV,,,,,,,
Ba$_{2}$TmRuO$_{6}$,0.06529999999999969,eV,,,,,,,
CsGe,1.3382999999999998,eV,,,,,,,
YbBa$_{2}$RuO$_{6}$,0.0,eV,,,,,,,
Dy$_{3}$(SiCu)$_{4}$,0.0,eV,,,,,,,
NdAl$_{3}$Pd$_{2}$,0.0,eV,,,,,,,
KAg$_{2}$,0.0,eV,,,,,,,
TbB$_{2}$Rh$_{2}$C,0.0,eV,,,,,,,
YB$_{2}$Rh$_{2}$C,0.0,eV,,,,,,,
CoS,0.0,eV,,,,,,,
MgPd$_{2}$,0.005599999999999383,eV,,,,,,,
MgPd$_{3}$,0.0,eV,,,,,,,
CrTe$_{4}$Au,0.0,eV,,,,,,,
Ce$_{2}$Ga$_{10}$Pd,0.0,eV,,,,,,,
ThMn$_{2}$,0.0,eV,,,,,,,
SiMo$_{3}$,0.0,eV,,,,,,,
SmGe$_{2}$,0.0,eV,,,,,,,
PuNi,0.0,eV,,,,,,,
Zr$_{4}$Al$_{3}$,0.0,eV,,,,,,,
GdAl,0.0,eV,,,,,,,
ThPt,0.0,eV,,,,,,,
ThRh,0.0,eV,,,,,,,
Zn$_{2}$CuAu,0.0,eV,,,,,,,
Zr$_{6}$Al$_{2}$Co,0.0,eV,,,,,,,
BeAu$_{2}$,0.0,eV,,,,,,,
PrB$_{6}$,0.0,eV,,,,,,,
TbB$_{6}$,0.0,eV,,,,,,,
SmC$_{2}$,0.0,eV,,,,,,,
GdC$_{2}$,0.0,eV,,,,,,,
Mg$_{13}$Al$_{14}$,0.0,eV,,,,,,,
YSi$_{2}$,0.0,eV,,,,,,,
DySi$_{2}$,0.0,eV,,,,,,,
Hf$_{2}$Al,0.0,eV,,,,,,,
Zr$_{2}$Al,0.0,eV,,,,,,,
ThIr,0.0,eV,,,,,,,
ThRu,0.0,eV,,,,,,,
TlFeS$_{2}$,0.0,eV,,,,,,,
VOs,0.0,eV,,,,,,,
CdTe,0.6198000000000001,eV,,,,,,,
Zr$_{2}$Si,0.0,eV,,,,,,,
Sr(GaAu)$_{2}$,0.0,eV,,,,,,,
ScAl$_{2}$Ni,0.0,eV,,,,,,,
YbAl$_{2}$Ni,0.0,eV,,,,,,,
Sr(CdGa)$_{2}$,0.0,eV,,,,,,,
YbAlAu,0.0,eV,,,,,,,
SiO$_{2}$,5.6211,eV,,,,,,,
Nd$_{3}$Au$_{4}$,0.0,eV,,,,,,,
Yb(Al$_{5}$Fe)$_{2}$,0.0,eV,,,,,,,
SmCuSn,0.0,eV,,,,,,,
NdAl,0.0,eV,,,,,,,
Al$_{2}$Cu,0.0,eV,,,,,,,
BaBe$_{2}$Si$_{2}$O$_{7}$,5.5679,eV,,,,,,,
Ni$_{3}$Pt,0.0,eV,,,,,,,
ErTe,0.0,eV,,,,,,,
CoCu$_{2}$Sn,0.0,eV,,,,,,,
BaEr$_{2}$F$_{8}$,7.215,eV,,,,,,,
SmAlSi,0.0,eV,,,,,,,
Cu$_{2}$GeTe$_{3}$,0.0,eV,,,,,,,
KAlO$_{2}$,3.7537999999999996,eV,,,,,,,
VIr,0.0,eV,,,,,,,
YbIn$_{2}$Rh,0.0,eV,,,,,,,
Ba$_{3}$SbN,0.7075,eV,,,,,,,
Na$_{2}$LiAu$_{3}$,0.0,eV,,,,,,,
Tb(Zn$_{10}$Fe)$_{2}$,0.05549999999999988,eV,,,,,,,
VC,0.0,eV,,,,,,,
Sb$_{8}$Te$_{3}$,0.0,eV,,,,,,,
LiCaGaF$_{6}$,6.4003,eV,,,,,,,
Ba$_{3}$CaRu$_{2}$O$_{9}$,0.0,eV,,,,,,,
ThCu$_{6}$,0.0,eV,,,,,,,
Er$_{3}$FeSi$_{3}$,0.0,eV,,,,,,,
Tm$_{3}$FeSi$_{3}$,0.004699999999999704,eV,,,,,,,
YCuS$_{2}$,1.5972,eV,,,,,,,
YbGaGe,0.0,eV,,,,,,,
PtO$_{2}$,0.6417999999999999,eV,,,,,,,
ZnCu$_{2}$GeTe$_{4}$,0.0,eV,,,,,,,
Cu$_{2}$HgGeSe$_{4}$,0.0,eV,,,,,,,
Pr(AlSi)$_{2}$,0.0,eV,,,,,,,
Na$_{3}$Cu$_{2}$SbO$_{6}$,0.0,eV,,,,,,,
LuTaO$_{4}$,4.0476,eV,,,,,,,
Ba(AlSi)$_{2}$,0.0,eV,,,,,,,
SrSnO$_{3}$,1.6118000000000001,eV,,,,,,,
SrSnO$_{3}$,1.5550000000000006,eV,,,,,,,
KS,1.469,eV,,,,,,,
ErIn$_{5}$Co,0.0,eV,,,,,,,
Si$_{2}$Ru,0.0,eV,,,,,,,
ReO$_{2}$,0.0,eV,,,,,,,
ThPS,0.0,eV,,,,,,,
Sr$_{2}$YSbO$_{6}$,3.7004,eV,,,,,,,
Tb$_{2}$Si$_{5}$Rh$_{3}$,0.0,eV,,,,,,,
AgO,0.17969999999999997,eV,,,,,,,
Ba$_{3}$NbGa$_{3}$(SiO$_{7}$)$_{2}$,3.2958,eV,,,,,,,
P,3.5354,eV,,,,,,,
Hf$_{5}$Te$_{4}$,0.0,eV,,,,,,,
BaAl$_{2}$Sb$_{2}$O$_{7}$,3.4109000000000003,eV,,,,,,,
ZrU$_{3}$Sb$_{5}$,0.0,eV,,,,,,,
HfU$_{3}$Sb$_{5}$,0.0,eV,,,,,,,
CaSi$_{2}$,0.0,eV,,,,,,,
Y$_{2}$SO$_{2}$,2.9934999999999996,eV,,,,,,,
YbGa$_{4}$Ni,0.0,eV,,,,,,,
NdAl$_{4}$Co,0.0,eV,,,,,,,