formula,Property Band Gap,Property Band Gap units,Property Band gap,Property Band gap units,Temperature (Property Band gap),Temperature (Property Band gap) units,Property Color,Temperature (Property Color),Temperature (Property Color) units
V$_{2}$P$_{3}$O$_{11}$,0.04070000000000018,eV,,,,,,,
LiVPO$_{5}$,1.2461,eV,,,,,,,
La$_{4}$Ti$_{3}$O$_{12}$,2.9901999999999997,eV,,,,,,,
V(PO$_{3}$)$_{4}$,1.231,eV,,,,,,,
Li$_{4}$V$_{3}$O$_{8}$,1.4558999999999997,eV,,,,,,,
LiV(PO$_{3}$)$_{4}$,2.1504,eV,,,,,,,
V(HO)$_{2}$,1.4121000000000001,eV,,,,,,,
LiV(PO$_{3}$)$_{4}$,2.056,eV,,,,,,,
Li$_{3}$V$_{3}$(PO$_{4}$)$_{4}$,1.8287,eV,,,,,,,
VBrO,1.4546000000000001,eV,,,,,,,
BaV$_{3}$O$_{8}$,1.8698000000000001,eV,,,,,,,
Ni$_{2}$SbTe$_{2}$,0.0,eV,,,,,,,
Mg$_{2}$V$_{2}$O$_{7}$,2.7138,eV,,,,,,,
LiV(PO$_{3}$)$_{4}$,2.2154,eV,,,,,,,
V$_{3}$(P$_{3}$O$_{10}$)$_{2}$,0.24209999999999998,eV,,,,,,,
Li$_{3}$V$_{2}$(PO$_{4}$)$_{3}$,1.9519999999999995,eV,,,,,,,
LiV(PO$_{3}$)$_{4}$,2.3039,eV,,,,,,,
Li$_{3}$V$_{2}$P$_{5}$O$_{16}$,2.4835000000000003,eV,,,,,,,
V(PO$_{3}$)$_{4}$,1.7651000000000001,eV,,,,,,,
Li$_{5}$V$_{2}$P$_{5}$O$_{18}$,1.9116,eV,,,,,,,
Li$_{3}$V$_{3}$(PO$_{4}$)$_{4}$,1.9907000000000001,eV,,,,,,,
LiV(PO$_{3}$)$_{3}$,2.4931,eV,,,,,,,
LiV$_{2}$P$_{3}$O$_{11}$,1.8201999999999994,eV,,,,,,,
V$_{2}$(PO$_{4}$)$_{3}$,1.0157,eV,,,,,,,
V(PO$_{3}$)$_{4}$,1.5953,eV,,,,,,,
SrTe$_{3}$O$_{8}$,2.1765,eV,,,,,,,
V(PO$_{3}$)$_{4}$,0.0,eV,,,,,,,
Li$_{2}$V$_{2}$(PO$_{4}$)$_{3}$,0.0037000000000002586,eV,,,,,,,
LiV(PO$_{3}$)$_{4}$,2.2441999999999998,eV,,,,,,,
V$_{3}$(P$_{3}$O$_{10}$)$_{2}$,0.01090000000000002,eV,,,,,,,
Li$_{2}$V(PO$_{4}$)$_{2}$,2.6334,eV,,,,,,,
CaV$_{2}$O$_{6}$,2.9196,eV,,,,,,,
V(PO$_{3}$)$_{4}$,1.2553,eV,,,,,,,
Li$_{3}$V$_{3}$(PO$_{4}$)$_{4}$,2.0374,eV,,,,,,,
V$_{3}$(PO$_{4}$)$_{4}$,0.7507000000000001,eV,,,,,,,
Li$_{3}$V$_{2}$(PO$_{4}$)$_{3}$,1.9362,eV,,,,,,,
Ba$_{2}$V$_{3}$O$_{9}$,1.5930000000000002,eV,,,,,,,
VRe$_{2}$O$_{9}$,1.8809,eV,,,,,,,
Na$_{2}$W$_{4}$O$_{13}$,1.9482,eV,,,,,,,
NaPWO$_{6}$,3.745,eV,,,,,,,
WI$_{3}$O,0.9198,eV,,,,,,,
WBr$_{4}$O,1.5356999999999998,eV,,,,,,,
Ag$_{2}$W$_{2}$O$_{7}$,1.9576,eV,,,,,,,
La$_{2}$W$_{2}$O$_{9}$,3.4184,eV,,,,,,,
W(ClO)$_{2}$,2.0632,eV,,,,,,,
PWO$_{5}$,1.8469,eV,,,,,,,
WCl$_{4}$O,2.335,eV,,,,,,,
Hg$_{2}$WO$_{4}$,1.9017,eV,,,,,,,
H$_{2}$WO$_{4}$,1.4492,eV,,,,,,,
Ti$_{9}$O$_{8}$,0.0,eV,,,,,,,
SrCu$_{2}$O$_{3}$,0.0,eV,,,,,,,
Ta$_{2}$I$_{5}$,0.0,eV,,,,,,,
NdO$_{3}$,0.0,eV,,,,,,,
Tb$_{4}$H$_{9}$,0.0,eV,,,,,,,
Si$_{3}$O,0.09609999999999985,eV,,,,,,,
KAuSe$_{5}$,1.0431,eV,,,,,,,
Al$_{2}$O$_{3}$,4.5982,eV,,,,,,,
Ce$_{2}$Se$_{3}$,0.0,eV,,,,,,,
Ca$_{3}$Ru$_{2}$O$_{7}$,0,eV,,,,,,,
Ga$_{2}$Te$_{3}$,0.0,eV,,,,,,,
Pr$_{2}$Te$_{3}$,0.8827999999999996,eV,,,,,,,
Ti$_{19}$N$_{25}$,0.0031999999999996476,eV,,,,,,,
Nd$_{2}$S$_{3}$,1.7865000000000002,eV,,,,,,,
U$_{4}$N$_{7}$,0.0,eV,,,,,,,
Al$_{2}$O$_{3}$,3.0751999999999997,eV,,,,,,,
Sm$_{2}$Se$_{3}$,1.4541999999999997,eV,,,,,,,
Bi$_{13}$O$_{20}$,0.3461999999999996,eV,,,,,,,
Ba$_{3}$P$_{2}$,0.2216999999999998,eV,,,,,,,
Dy(BO$_{2}$)$_{3}$,5.6366,eV,,,,,,,
Ce$_{5}$O$_{9}$,4.000000000008441E-4,eV,,,,,,,
Ga$_{2}$S$_{3}$,1.8097000000000003,eV,,,,,,,
Tm(CoSi)$_{2}$,0.0,eV,,,,,,,
Ce$_{2}$S$_{3}$,0.0019000000000000128,eV,,,,,,,
USO,0.0,eV,,,,,,,
Ti$_{19}$Se$_{20}$,0.007700000000000706,eV,,,,,,,
Dy$_{6}$Se$_{11}$,0.5317000000000007,eV,,,,,,,
Sr$_{3}$P$_{2}$,0.38549999999999995,eV,,,,,,,
Th(NiGe)$_{2}$,0.0,eV,,,,,,,
La$_{5}$S$_{8}$,0.0,eV,,,,,,,
LiS,0.0,eV,,,,,,,
Lu$_{2}$S$_{3}$,2.0514,eV,,,,,,,
Pr$_{5}$Cl$_{12}$,0.0,eV,,,,,,,
Sm$_{2}$S$_{3}$,1.8075999999999999,eV,,,,,,,
WO$_{3}$,1.4893,eV,,,,,,,
SiO$_{2}$,5.3845,eV,,,,,,,
Ag$_{2}$S,1.2957999999999998,eV,,,,,,,
TlSb$_{5}$S$_{8}$,1.5463999999999998,eV,,,,,,,
Pu$_{2}$Se$_{3}$,0.0035000000000007248,eV,,,,,,,
Nb$_{10}$C$_{7}$,0.0,eV,,,,,,,
YbB$_{2}$Ru$_{3}$,0.0,eV,,,,,,,
Te$_{8}$Ir$_{3}$,0.0,eV,,,,,,,
HBr,4.486000000000001,eV,,,,,,,
CoO$_{2}$,0.0,eV,,,,,,,
Nd$_{2}$Se$_{3}$,1.4284999999999997,eV,,,,,,,
Pr$_{2}$Se$_{3}$,1.4255999999999998,eV,,,,,,,
NaTh$_{2}$F$_{9}$,6.2533,eV,,,,,,,
Pr$_{2}$S$_{3}$,1.9510000000000005,eV,,,,,,,
Y$_{10}$H$_{21}$,0.0,eV,,,,,,,
Ti$_{3}$AlC,0.0,eV,,,,,,,
SrBr$_{2}$,4.299799999999999,eV,,,,,,,
B$_{36}$O$_{5}$,2.3416000000000006,eV,,,,,,,
Y$_{3}$Se$_{4}$,0.0,eV,,,,,,,
Si$_{5}$P$_{6}$O$_{25}$,5.5931,eV,,,,,,,
Er$_{2}$Se$_{3}$,1.6222000000000003,eV,,,,,,,
NiGePd,0.0,eV,,,,,,,
U$_{16}$N$_{25}$,0.0,eV,,,,,,,
NdO$_{3}$,0.12639999999999985,eV,,,,,,,
PrFeSi$_{2}$,0.0,eV,,,,,,,
CuI,1.1641000000000004,eV,,,,,,,
La$_{2}$Te$_{3}$,0.9992000000000001,eV,,,,,,,
Ag$_{2}$Se,0.0,eV,,,,,,,
Nb$_{4}$Cr$_{2}$Si$_{5}$,0.0,eV,,,,,,,
LiP$_{5}$,0.5134999999999996,eV,,,,,,,
SiO,0.0,eV,,,,,,,
BAsO$_{4}$,4.2615,eV,,,,,,,
WO$_{3}$,1.2858,eV,,,,,,,
Pr(SiPd)$_{2}$,0.0,eV,,,,,,,
AuCl,1.8679000000000001,eV,,,,,,,
Ho$_{2}$S$_{3}$,1.9342000000000006,eV,,,,,,,
Ag$_{2}$S,0.0,eV,,,,,,,
Re$_{3}$O$_{8}$,0.0,eV,,,,,,,
La$_{2}$Se$_{3}$,1.5389999999999997,eV,,,,,,,
Zr$_{2}$Ni,0.0,eV,,,,,,,
Ac$_{2}$S$_{3}$,2.2729,eV,,,,,,,
Al$_{5}$BO$_{9}$,4.9356,eV,,,,,,,
Ti$_{9}$O$_{10}$,0.0,eV,,,,,,,
Dy$_{2}$S$_{3}$,1.9090999999999996,eV,,,,,,,
CuCl$_{4}$,0.0,eV,,,,,,,
RbNbO$_{3}$,3.3068,eV,,,,,,,
Ho$_{6}$Se$_{11}$,0.5492999999999997,eV,,,,,,,
Ce$_{2}$Te$_{3}$,0.0,eV,,,,,,,
CeSi$_{2}$Pt,0.0,eV,,,,,,,
Na$_{2}$Ta$_{4}$O$_{11}$,3.4657,eV,,,,,,,
Tm$_{2}$Se$_{3}$,1.6557999999999997,eV,,,,,,,
H$_{11}$O$_{8}$,0.9497999999999998,eV,,,,,,,
Cu$_{13}$Se$_{8}$,0.0,eV,,,,,,,
Ce(AlZn)$_{2}$,0.0,eV,,,,,,,
Ag$_{2}$S,0.6242999999999999,eV,,,,,,,
Hf$_{23}$Se$_{25}$,0.03929999999999989,eV,,,,,,,
CsNO$_{2}$,2.3383000000000003,eV,,,,,,,
CuBr,0.44799999999999995,eV,,,,,,,
Si$_{3}$O,0.1637000000000004,eV,,,,,,,
Ag$_{2}$S,1.2996999999999999,eV,,,,,,,
HfTe$_{2}$,0.0,eV,,,,,,,
LaMgNi$_{4}$,0.0,eV,,,,,,,
Y$_{2}$S$_{3}$,1.9018999999999995,eV,,,,,,,
SiO$_{2}$,5.7862,eV,,,,,,,
Li$_{2}$S,1.921,eV,,,,,,,
Cu$_{8}$O$_{7}$,0.0,eV,,,,,,,
La$_{2}$S$_{3}$,1.9200999999999997,eV,,,,,,,
AgTe$_{4}$Au,0.0,eV,,,,,,,
Nb$_{16}$N$_{13}$,0.0,eV,,,,,,,
Tb(CoSi)$_{2}$,0.0,eV,,,,,,,
Tb$_{2}$O$_{3}$,0.0,eV,,,,,,,
Tm$_{2}$S$_{3}$,2.0032000000000005,eV,,,,,,,
Fe$_{7}$O$_{8}$,0.0,eV,,,,,,,
Sm$_{2}$F,0.0,eV,,,,,,,
H$_{2}$O,5.275399999999999,eV,,,,,,,
Yb(GePd)$_{2}$,0.0,eV,,,,,,,
Zr$_{7}$Sb$_{4}$,0.0,eV,,,,,,,
Li$_{10}$Zn$_{4}$O$_{9}$,2.329,eV,,,,,,,
Nb$_{3}$S$_{5}$,0.0,eV,,,,,,,
Sr(FeP)$_{2}$,0.0,eV,,,,,,,
Hf$_{4}$N$_{3}$,0.0,eV,,,,,,,
Ru,0.0,eV,,,,,,,
MnO$_{2}$,0.0,eV,,,,,,,
Dy(SiPd)$_{2}$,0.0,eV,,,,,,,
Rb$_{3}$Sb,0.4317,eV,,,,,,,
H$_{2}$S,4.0901,eV,,,,,,,
Nd$_{2}$O$_{3}$,0.9034,eV,,,,,,,
Ce(AlGa)$_{2}$,0.0,eV,,,,,,,
La$_{2}$O$_{3}$,7.999999999999119E-4,eV,,,,,,,
TiN,0.0026999999999999247,eV,,,,,,,
Rb$_{6}$C$_{5}$,0.0,eV,,,,,,,
BaSO$_{4}$,4.4974,eV,,,,,,,
ScAl,0.0,eV,,,,,,,
Sm$_{2}$O,0.0,eV,,,,,,,
SF$_{4}$,1.5276,eV,,,,,,,
SrUO$_{4}$,2.0862,eV,,,,,,,
Sc$_{2}$H$_{5}$,0.0,eV,,,,,,,
Cs(SbSe$_{2}$)$_{2}$,1.1176,eV,,,,,,,
TcO$_{2}$,0.0,eV,,,,,,,
CaPd$_{3}$O$_{4}$,0.0,eV,,,,,,,
AgI$_{2}$,0.024599999999999955,eV,,,,,,,
BaCeO$_{3}$,2.2112,eV,,,,,,,
SmRhO$_{3}$,0.7336,eV,,,,,,,
Na$_{2}$BeF$_{4}$,6.6745,eV,,,,,,,
Mg(RhO$_{2}$)$_{2}$,1.1521,eV,,,,,,,
CuI$_{4}$,0.0,eV,,,,,,,
SrZrO$_{3}$,3.2143999999999995,eV,,,,,,,
RbO$_{2}$,0.08630000000000004,eV,,,,,,,
Pu$_{2}$S$_{3}$,0.0,eV,,,,,,,
Nb$_{2}$SnO$_{6}$,1.7399,eV,,,,,,,
Ce(NiGe)$_{2}$,0.0,eV,,,,,,,
Ni$_{15}$O$_{16}$,0.0,eV,,,,,,,
Ho$_{2}$Al$_{3}$Si$_{2}$,0.0,eV,,,,,,,
Tb(NiGe)$_{2}$,0.0,eV,,,,,,,
Mg$_{2}$TiO$_{4}$,2.5837000000000003,eV,,,,,,,
HfFe$_{2}$,0.0,eV,,,,,,,
Fe$_{5}$CuO$_{8}$,0.15280000000000005,eV,,,,,,,
MgAl$_{2}$O$_{4}$,4.2658,eV,,,,,,,
Nd$_{2}$UTe$_{4}$,0.0,eV,,,,,,,
Li$_{3}$Mn$_{2}$O$_{4}$,0.009699999999999598,eV,,,,,,,
Ca$_{11}$Al$_{14}$O$_{32}$,3.3720000000000003,eV,,,,,,,
Pr$_{3}$NF$_{6}$,3.3097000000000003,eV,,,,,,,
NaCrSe$_{2}$,0.7174,eV,,,,,,,
CaUS$_{2}$,0.0,eV,,,,,,,
LiHoSe$_{2}$,1.5785,eV,,,,,,,
Mg(FeO$_{2}$)$_{2}$,1.6993,eV,,,,,,,
Eu(NiGe)$_{2}$,0.0,eV,,,,,,,
Co$_{5}$SbO$_{8}$,0.0,eV,,,,,,,
NaSbSe$_{2}$,0.0,eV,,,,,,,
MgAl$_{2}$O$_{4}$,4.251799999999999,eV,,,,,,,
LiGa$_{3}$Te$_{5}$,1.041,eV,,,,,,,
Ba$_{3}$Ti$_{3}$O$_{8}$,0.0,eV,,,,,,,
Tm$_{2}$Sn$_{2}$O$_{7}$,2.6486,eV,,,,,,,
Sm$_{2}$Ti$_{2}$O$_{7}$,2.7404,eV,,,,,,,
LaGaO$_{3}$,3.3762999999999996,eV,,,,,,,
LiYS$_{2}$,1.9596999999999998,eV,,,,,,,
Ti$_{6}$Si$_{7}$Ni$_{16}$,0.0,eV,,,,,,,
NaGaO$_{2}$,2.8582,eV,,,,,,,
Sr(CeS$_{2}$)$_{2}$,0.0,eV,,,,,,,
Cd(GaSe$_{2}$)$_{2}$,0.0,eV,,,,,,,
LaF$_{3}$,6.0452,eV,,,,,,,
TaAlCo$_{2}$,0.0,eV,,,,,,,
La$_{2}$PbSe$_{4}$,1.8284000000000002,eV,,,,,,,
ZnPS$_{3}$,1.98,eV,,,,,,,
Mg(FeO$_{2}$)$_{2}$,1.5261,eV,,,,,,,
Tl(WO$_{3}$)$_{6}$,0.0,eV,,,,,,,
CeAlRh,0.0,eV,,,,,,,
Sr$_{5}$(BiO$_{4}$)$_{3}$,0.0,eV,,,,,,,
Tb$_{5}$AgS$_{8}$,1.7047999999999996,eV,,,,,,,
HoZrSb,0.0,eV,,,,,,,
Li$_{3}$Mn$_{3}$O$_{8}$,0.0,eV,,,,,,,
Be$_{2}$SiO$_{4}$,5.817399999999999,eV,,,,,,,
LiBIr,0.0,eV,,,,,,,
Sr$_{3}$Ti$_{2}$O$_{7}$,1.8404999999999996,eV,,,,,,,
BaGa$_{4}$,0.0,eV,,,,,,,
Cr$_{2}$HO$_{4}$,0.0,eV,,,,,,,
TaGaO$_{4}$,3.1573999999999995,eV,,,,,,,
ErSiPd$_{2}$,0.0,eV,,,,,,,
LiBiS$_{2}$,0.8113000000000001,eV,,,,,,,
NbP$_{2}$O$_{7}$,0.0,eV,,,,,,,
La$_{2}$UTe$_{4}$,0.0,eV,,,,,,,
Fe$_{2}$MoO$_{4}$,1.1608999999999998,eV,,,,,,,
Ho$_{3}$(GePd)$_{4}$,0.0,eV,,,,,,,
Fe$_{2}$CuO$_{4}$,0.0,eV,,,,,,,
LiFe$_{5}$O$_{8}$,1.1879000000000004,eV,,,,,,,
Na$_{3}$GdCl$_{6}$,2.8674999999999997,eV,,,,,,,
Ca(CeS$_{2}$)$_{2}$,0.0,eV,,,,,,,
Sr(LaSe$_{2}$)$_{2}$,1.8829000000000002,eV,,,,,,,
Ba$_{9}$Nb$_{10}$O$_{30}$,0.0,eV,,,,,,,
Ca$_{2}$NF,1.6866000000000003,eV,,,,,,,
Ba$_{2}$SnO$_{4}$,2.4421999999999997,eV,,,,,,,
SmCo$_{2}$,0.0,eV,,,,,,,
Ba(PrSe$_{2}$)$_{2}$,1.6190000000000002,eV,,,,,,,
Ba$_{3}$Al$_{2}$F$_{12}$,6.8714,eV,,,,,,,
Ba(LaS$_{2}$)$_{2}$,2.0683999999999996,eV,,,,,,,
AgBiSe$_{2}$,0.007799999999999585,eV,,,,,,,
Sc$_{2}$Ni$_{2}$Sn,0.0,eV,,,,,,,
TiZn$_{2}$O$_{4}$,1.4336000000000002,eV,,,,,,,
Pr$_{2}$Mo$_{15}$O$_{28}$,0.9792999999999994,eV,,,,,,,
Nb$_{2}$Tl$_{2}$O$_{7}$,0.0,eV,,,,,,,
LiDyS$_{2}$,1.9741999999999997,eV,,,,,,,
NbIrS$_{4}$,0.0,eV,,,,,,,
LiNb$_{3}$O$_{8}$,2.9705000000000004,eV,,,,,,,
AgSbSe$_{2}$,0.0,eV,,,,,,,
Ti(FeO$_{2}$)$_{2}$,1.1230000000000002,eV,,,,,,,
PrSO,1.9171999999999998,eV,,,,,,,
PuBe$_{13}$,0.0,eV,,,,,,,
Y$_{2}$Sn$_{2}$O$_{7}$,2.7501000000000007,eV,,,,,,,
Mn(FeO$_{2}$)$_{2}$,0.0,eV,,,,,,,
Rb$_{2}$SO$_{4}$,4.9943,eV,,,,,,,
BiTeBr,1.2233,eV,,,,,,,
Mn$_{3}$Cu$_{3}$O$_{8}$,0.0,eV,,,,,,,
TiNiO$_{6}$,0.0,eV,,,,,,,
Nd$_{4}$Au$_{2}$O$_{9}$,1.9966,eV,,,,,,,
SrCO$_{3}$,4.2741,eV,,,,,,,
Nd$_{4}$Ge$_{3}$Rh$_{4}$,0.0,eV,,,,,,,
TaHO$_{3}$,2.7443,eV,,,,,,,
Sr$_{2}$SnO$_{4}$,2.5727,eV,,,,,,,
La$_{5}$AgSe$_{8}$,1.4229000000000003,eV,,,,,,,
SrHfO$_{3}$,4.1704,eV,,,,,,,
K$_{2}$SbF$_{5}$,4.6778,eV,,,,,,,
Sr(RuO$_{3}$)$_{2}$,0.0,eV,,,,,,,
LaRhC$_{2}$,0.0,eV,,,,,,,
Nd$_{2}$Mo$_{2}$O$_{7}$,0.13899999999999935,eV,,,,,,,
Rb$_{6}$Fe$_{2}$O$_{5}$,1.2235,eV,,,,,,,
CaSiO$_{3}$,3.5145999999999997,eV,,,,,,,
Er$_{3}$Al$_{5}$O$_{12}$,4.758,eV,,,,,,,
Sr(PPd)$_{2}$,0.0,eV,,,,,,,
CrSbO$_{4}$,0.8623000000000003,eV,,,,,,,
CaSiO$_{3}$,3.6537999999999995,eV,,,,,,,
Na$_{7}$Zr$_{6}$F$_{31}$,5.2616000000000005,eV,,,,,,,
U(SiRu)$_{2}$,0.0,eV,,,,,,,
Sr(GaTe$_{2}$)$_{2}$,0.28549999999999986,eV,,,,,,,
ErAgSe$_{2}$,0.4123000000000001,eV,,,,,,,
UMn$_{2}$,0.0,eV,,,,,,,
Y(SiCu)$_{2}$,0.0,eV,,,,,,,
Nd$_{2}$CuO$_{4}$,0.7073,eV,,,,,,,
Ba(TlHg)$_{2}$,0.0,eV,,,,,,,
Sr$_{3}$Al$_{2}$O$_{6}$,4.2046,eV,,,,,,,
NbHO$_{3}$,2.6275999999999997,eV,,,,,,,
Mg$_{2}$PtO$_{4}$,1.1505,eV,,,,,,,
Ho$_{2}$Ti$_{2}$O$_{7}$,2.7086,eV,,,,,,,
SrSeO$_{3}$,3.6958,eV,,,,,,,
Ba$_{2}$TiO$_{4}$,4.1473,eV,,,,,,,
CuAsSe$_{2}$,0.30600000000000005,eV,,,,,,,
Ho$_{2}$Ni$_{2}$Pb,0.0,eV,,,,,,,
Ba(InTe$_{2}$)$_{2}$,0.8650000000000002,eV,,,,,,,
TaO$_{2}$F,2.0476,eV,,,,,,,
Lu(MnGe)$_{6}$,0.0,eV,,,,,,,
Ce(SmS$_{2}$)$_{2}$,0.0,eV,,,,,,,
Ca(HoS$_{2}$)$_{2}$,2.1913,eV,,,,,,,
Mg$_{10}$(Fe$_{3}$O$_{8}$)$_{3}$,0.0,eV,,,,,,,
UTeN,0.0,eV,,,,,,,
Mg$_{2}$SnO$_{4}$,2.5338,eV,,,,,,,
Ba$_{2}$NbO,0.0,eV,,,,,,,
Ba$_{8}$P$_{5}$Br,1.1637,eV,,,,,,,
NbBi$_{3}$O$_{7}$,2.1389999999999993,eV,,,,,,,
Li$_{6}$NCl$_{3}$,1.1215000000000002,eV,,,,,,,
RbSO$_{3}$,5.0191,eV,,,,,,,
KY$_{3}$F$_{10}$,5.996700000000001,eV,,,,,,,
H(WO$_{3}$)$_{2}$,0.40149999999999997,eV,,,,,,,
NaAl$_{11}$O$_{17}$,4.4910000000000005,eV,,,,,,,
Li$_{7}$Ti$_{7}$O$_{16}$,0.0,eV,,,,,,,
U(SiPt)$_{2}$,0,eV,,,,,,,
TlCr$_{5}$Se$_{8}$,3.9999999999995595E-4,eV,,,,,,,
H$_{3}$ClO,5.3864,eV,,,,,,,
NaYF$_{4}$,6.9245,eV,,,,,,,
PbF$_{4}$,1.9022000000000001,eV,,,,,,,
LaMnO$_{3}$,0.25009999999999977,eV,,,,,,,
Tl(MoSe)$_{3}$,0.0,eV,,,,,,,
Tm$_{2}$MgS$_{4}$,2.3768000000000002,eV,,,,,,,
Eu(SiCu)$_{2}$,0.0,eV,,,,,,,
LiSbS$_{2}$,0.0,eV,,,,,,,
Cu$_{4}$SnP$_{10}$,0.19340000000000046,eV,,,,,,,
K$_{2}$NaAs,0.15169999999999995,eV,,,,,,,
MnO$_{2}$,1.865,eV,,,,,,,
Mn$_{2}$CrO$_{4}$,0.6598000000000006,eV,,,,,,,
AgSbF$_{6}$,1.7671999999999999,eV,,,,,,,
Zn(FeO$_{2}$)$_{2}$,1.5928,eV,,,,,,,
Sr(LaS$_{2}$)$_{2}$,2.2358000000000002,eV,,,,,,,
MgAl$_{2}$O$_{4}$,4.5897,eV,,,,,,,
Ce$_{2}$CdS$_{4}$,0.0,eV,,,,,,,
Co$_{2}$CuO$_{4}$,0.04039999999999999,eV,,,,,,,
Yb(SiRu)$_{2}$,0.0,eV,,,,,,,
SiO$_{2}$,1.0638,eV,,,,,,,
Na$_{3}$AlF$_{6}$,6.714499999999999,eV,,,,,,,
Zn(InSe$_{2}$)$_{2}$,0.8265000000000002,eV,,,,,,,
Ca(BO$_{2}$)$_{2}$,5.1925,eV,,,,,,,
Ce$_{2}$CdSe$_{4}$,0.0,eV,,,,,,,
Ca(PrS$_{2}$)$_{2}$,2.0570000000000004,eV,,,,,,,
RbAuF$_{4}$,2.5364000000000004,eV,,,,,,,
BaCO$_{3}$,4.3419,eV,,,,,,,
Ca(Sm$_{2}$Se$_{3}$)$_{4}$,0.0,eV,,,,,,,
Bi$_{2}$Te$_{3}$,0.33119999999999994,eV,,,,,,,
CuCN$_{2}$,0.0,eV,,,,,,,
Al$_{2}$ZnO$_{4}$,3.0302999999999995,eV,,,,,,,
K(AsRh)$_{2}$,0.0,eV,,,,,,,
Al$_{2}$NiO$_{4}$,3.079600000000001,eV,,,,,,,
Mn$_{2}$CuO$_{4}$,0.006399999999999739,eV,,,,,,,
NaZnAs,0.0,eV,,,,,,,
Eu(LuS$_{2}$)$_{2}$,0.4383999999999997,eV,,,,,,,
ZrF$_{4}$,4.358900000000001,eV,,,,,,,
Mn$_{2}$TcO$_{4}$,0.0,eV,,,,,,,
LiAlO$_{2}$,4.5899,eV,,,,,,,
K(WO$_{3}$)$_{6}$,0.21830000000000016,eV,,,,,,,
SmBPd$_{3}$,0.0,eV,,,,,,,
NaNdF$_{4}$,7.206099999999999,eV,,,,,,,
Ti$_{3}$Fe$_{7}$O$_{15}$,1.3092000000000001,eV,,,,,,,
TiNbS$_{4}$,0.0,eV,,,,,,,
Zr$_{3}$InF$_{15}$,5.4052999999999995,eV,,,,,,,
Tl$_{9}$SbTe$_{6}$,0.6131000000000002,eV,,,,,,,
CsTaN$_{2}$,2.1494999999999997,eV,,,,,,,
Zn(FeO$_{2}$)$_{2}$,1.4928,eV,,,,,,,
Pr$_{2}$Ru$_{2}$O$_{7}$,0,eV,,,,,,,
Eu(PrS$_{2}$)$_{2}$,0.4721000000000002,eV,,,,,,,
ScNiSb,0.2679999999999998,eV,,,,,,,
Dy$_{2}$Ti$_{2}$O$_{7}$,2.7197,eV,,,,,,,
Li$_{6}$Br$_{3}$N,2.2169,eV,,,,,,,
YMgNi$_{4}$,0.0,eV,,,,,,,
MgAl$_{2}$O$_{4}$,4.356599999999999,eV,,,,,,,
H$_{4}$NCl,4.9341,eV,,,,,,,
Nd$_{3}$Cu$_{3}$Sb$_{4}$,0.19750000000000068,eV,,,,,,,
Li$_{31}$Zr$_{2}$As$_{13}$,0.0012999999999996348,eV,,,,,,,
Tl$_{9}$BiTe$_{6}$,0.6109,eV,,,,,,,
Ce(CoSi)$_{2}$,0.0,eV,,,,,,,
AgSbS$_{2}$,0.0,eV,,,,,,,
Li$_{7}$OsO$_{6}$,0.7222999999999997,eV,,,,,,,
Tb$_{2}$CdS$_{4}$,1.8687999999999998,eV,,,,,,,
HoTaO$_{4}$,1.5885000000000007,eV,,,,,,,
H$_{4}$IN,3.7607,eV,,,,,,,
SbPO$_{4}$,3.9963,eV,,,,,,,
BN,3.5766,eV,,,,,,,
Li$_{2}$(LuGe)$_{3}$,0.0,eV,,,,,,,
Y(SiRh)$_{2}$,0.0,eV,,,,,,,
Sr(La$_{2}$Se$_{3}$)$_{4}$,0.0,eV,,,,,,,
AgPF$_{6}$,3.2359999999999998,eV,,,,,,,
CaTiO$_{3}$,2.2434,eV,,,,,,,
CdBi$_{3}$O$_{7}$,0.0,eV,,,,,,,
Zn(FeO$_{2}$)$_{2}$,1.5701,eV,,,,,,,
Cd(GaO$_{2}$)$_{2}$,1.5793000000000001,eV,,,,,,,
Mg$_{2}$TcO$_{4}$,0.0,eV,,,,,,,
Tb$_{10}$Ti$_{6}$O$_{27}$,2.6132999999999997,eV,,,,,,,
ErTaO$_{4}$,4.082800000000001,eV,,,,,,,
Ba(NdS$_{2}$)$_{2}$,1.9232,eV,,,,,,,
SrTm$_{2}$O$_{4}$,3.8126999999999995,eV,,,,,,,
Ag$_{3}$AuS$_{2}$,1.5412,eV,,,,,,,
Li$_{7}$Mn$_{11}$O$_{24}$,0.7835000000000001,eV,,,,,,,
Li$_{2}$HN,2.7661,eV,,,,,,,
Zn(GaS$_{2}$)$_{2}$,1.8921999999999999,eV,,,,,,,
Th(CrGe)$_{2}$,0.0,eV,,,,,,,
Na(Nd$_{2}$Se$_{3}$)$_{4}$,0.0,eV,,,,,,,
Ta$_{2}$MnO$_{6}$,1.9301999999999997,eV,,,,,,,
LiSmS$_{2}$,1.9213999999999998,eV,,,,,,,
KMgF$_{3}$,6.9536999999999995,eV,,,,,,,
Pr$_{5}$AgS$_{8}$,1.5768000000000004,eV,,,,,,,
LiInSe$_{2}$,0.39419999999999966,eV,,,,,,,
Mg(FeO$_{2}$)$_{2}$,0.9676999999999998,eV,,,,,,,
HfB,0,eV,,,,,,,
Fe$_{2}$CoO$_{4}$,0.07299999999999951,eV,,,,,,,
Sr(SmS$_{2}$)$_{2}$,2.1281,eV,,,,,,,
BaVS$_{3}$,0.0,eV,,,,,,,
Er(MnGe)$_{6}$,0,eV,,,,,,,
Li$_{31}$Zr$_{2}$P$_{13}$,0.0022999999999999687,eV,,,,,,,
Er(NiP)$_{2}$,0.0,eV,,,,,,,
Tb(SiCu)$_{2}$,0.0,eV,,,,,,,
Mn$_{2}$CuO$_{4}$,0.0,eV,,,,,,,
Mg(FeO$_{2}$)$_{2}$,1.5759999999999996,eV,,,,,,,
ErP$_{5}$O$_{14}$,5.444100000000001,eV,,,,,,,
Ba$_{4}$Y$_{3}$F$_{17}$,6.6945,eV,,,,,,,
Na$_{3}$HfF$_{7}$,6.2463999999999995,eV,,,,,,,
Er$_{3}$Pb$_{4}$F$_{17}$,5.0743,eV,,,,,,,
Zr$_{4}$N$_{2}$O$_{5}$,2.3773999999999997,eV,,,,,,,
Co$_{2}$RuO$_{4}$,0.0,eV,,,,,,,
NbFeO$_{4}$,2.1631000000000005,eV,,,,,,,
ZnAgAs,0.0,eV,,,,,,,
CaTi$_{2}$O$_{4}$,0.0,eV,,,,,,,
FeSiRu$_{2}$,0.0,eV,,,,,,,
LaB$_{2}$Rh$_{3}$,0.0,eV,,,,,,,
LiMn$_{3}$O$_{4}$,0.0,eV,,,,,,,
Cd(CN)$_{2}$,5.9948,eV,,,,,,,
PrAlO$_{3}$,4.1325,eV,,,,,,,
NaAsSe$_{2}$,0.028200000000000003,eV,,,,,,,
SmB$_{2}$Ru$_{3}$,0.0,eV,,,,,,,
NaAsO$_{2}$,3.7311,eV,,,,,,,
SrNd$_{5}$S$_{8}$,0.0,eV,,,,,,,
TiO$_{2}$,1.9889999999999999,eV,,,,,,,
BaPrO$_{3}$,0.030000000000000027,eV,,,,,,,
MgSiO$_{3}$,0.0,eV,,,,,,,
La$_{2}$Ni$_{5}$B$_{4}$,0.0,eV,,,,,,,
YCoO$_{3}$,0.0,eV,,,,,,,
Na(Pr$_{2}$Se$_{3}$)$_{4}$,0.0,eV,,,,,,,
PbSO$_{4}$,3.9870000000000005,eV,,,,,,,
Zn(FeO$_{2}$)$_{2}$,1.6027999999999998,eV,,,,,,,
Ho$_{2}$CdS$_{4}$,0.6539999999999999,eV,,,,,,,
LaCuO$_{3}$,0.0,eV,,,,,,,
P$_{2}$PbO$_{6}$,4.4803,eV,,,,,,,
Ta$_{5}$N$_{6}$,0.0,eV,,,,,,,
NaAlB$_{14}$,1.5847999999999995,eV,,,,,,,
Tl$_{4}$CuTe$_{3}$,0.0,eV,,,,,,,
MgAgAs,0.0,eV,,,,,,,
Sr(GdSe$_{2}$)$_{2}$,0.9667000000000003,eV,,,,,,,
Al$_{2}$FeO$_{4}$,2.0233999999999996,eV,,,,,,,
Ga$_{2}$CuO$_{4}$,0.0,eV,,,,,,,
Ag$_{7}$NO$_{11}$,0.0,eV,,,,,,,
CaAl$_{9}$Ni,0.0,eV,,,,,,,
TmPd,0.0,eV,,,,,,,
NaYF$_{4}$,7.3401,eV,,,,,,,
KSnAs,0.3397000000000001,eV,,,,,,,
Na$_{3}$UO$_{4}$,0.1274999999999995,eV,,,,,,,
KNO$_{2}$,2.4904,eV,,,,,,,
KSnSb,0.26460000000000017,eV,,,,,,,
Ca$_{3}$(PO$_{4}$)$_{2}$,5.4611,eV,,,,,,,
Na$_{2}$Ti$_{3}$O$_{7}$,2.9886999999999997,eV,,,,,,,
Nd(FeSi)$_{2}$,0.0,eV,,,,,,,
Li$_{2}$Mn$_{15}$O$_{32}$,0.0,eV,,,,,,,
Zr$_{4}$N$_{2}$O$_{5}$,2.0388,eV,,,,,,,
Yb$_{3}$Si$_{5}$,0.0,eV,,,,,,,
MgGeP$_{2}$,1.4962,eV,,,,,,,
NbSbO$_{4}$,2.4311000000000003,eV,,,,,,,
Nd$_{2}$Sn$_{2}$O$_{7}$,0.0,eV,,,,,,,
Nd$_{5}$ErS$_{8}$,0.0,eV,,,,,,,
CaHN,2.1864000000000003,eV,,,,,,,
CeGa$_{3}$Pd$_{2}$,0.0,eV,,,,,,,
S$_{3}$(NO)$_{2}$,1.6922,eV,,,,,,,
FeCuS$_{2}$,0.0,eV,,,,,,,
CeOF,0.0,eV,,,,,,,
Al$_{2}$FeO$_{4}$,2.679199999999999,eV,,,,,,,
HfGaNi$_{2}$,0.0,eV,,,,,,,
NdMnO$_{3}$,0.3582999999999994,eV,,,,,,,
Ag$_{3}$AuS$_{2}$,0.3886000000000003,eV,,,,,,,
Sm(DyS$_{2}$)$_{2}$,0.0,eV,,,,,,,
MnSbPd$_{2}$,0.0,eV,,,,,,,
LiAlO$_{2}$,4.504,eV,,,,,,,
Mn,0.0,eV,,,,,,,
Zr$_{5}$Te$_{4}$,0.0,eV,,,,,,,
Na$_{3}$(WO$_{3}$)$_{4}$,0.0,eV,,,,,,,
NaBiSe$_{2}$,0.7066000000000003,eV,,,,,,,
Zn$_{2}$Te$_{3}$O$_{8}$,3.2909,eV,,,,,,,
Li$_{6}$WN$_{4}$,3.0573999999999995,eV,,,,,,,
Pr$_{5}$CuSe$_{8}$,0.9451999999999998,eV,,,,,,,
ZnFe$_{5}$O$_{8}$,1.1689000000000003,eV,,,,,,,
KCN,5.2873,eV,,,,,,,
NbNi$_{2}$Sn,0.0,eV,,,,,,,
LiMg$_{9}$B$_{20}$,0.0,eV,,,,,,,
Lu(SiPd)$_{2}$,0.0,eV,,,,,,,
InAgSe$_{2}$,0.0,eV,,,,,,,
BaMnO$_{3}$,0.6737000000000002,eV,,,,,,,
BH$_{6}$N,6.106400000000001,eV,,,,,,,
Li$_{31}$Zr$_{2}$Sb$_{13}$,0.018200000000000216,eV,,,,,,,
SiNi,0.0,eV,,,,,,,
Dy$_{2}$Al$_{3}$Si$_{2}$,0.0,eV,,,,,,,
BaNbS$_{3}$,0.0,eV,,,,,,,
Y(CoB)$_{2}$,0.0,eV,,,,,,,
Sr$_{2}$H$_{5}$Rh,0.5802999999999998,eV,,,,,,,
UTeO$_{5}$,1.8368000000000002,eV,,,,,,,
MnIn$_{2}$O$_{4}$,1.2622999999999998,eV,,,,,,,
NbO$_{2}$F,1.3247,eV,,,,,,,
NbBi$_{3}$O$_{7}$,1.7448999999999995,eV,,,,,,,
ZrSO,2.4196999999999997,eV,,,,,,,
Sm(SbTe$_{2}$)$_{2}$,0.0,eV,,,,,,,
HfO$_{2}$,4.0165,eV,,,,,,,
Y$_{2}$SiO$_{5}$,4.8947,eV,,,,,,,
AlO$_{3}$,0.0,eV,,,,,,,
LiErSe$_{2}$,1.6045000000000003,eV,,,,,,,
NdOF,5.2617,eV,,,,,,,
NaBF$_{4}$,7.841200000000001,eV,,,,,,,
BiTe$_{3}$,0.0,eV,,,,,,,
MgCuSb,0.0,eV,,,,,,,
PHN$_{2}$,4.619,eV,,,,,,,
SrGd$_{2}$O$_{4}$,3.0100000000000002,eV,,,,,,,
Ga$_{2}$NiO$_{4}$,1.5034,eV,,,,,,,
LiPN$_{2}$,3.8015999999999996,eV,,,,,,,
Na$_{2}$SO$_{3}$,0.4776999999999998,eV,,,,,,,
Sm$_{2}$Hf$_{2}$O$_{7}$,3.7211000000000003,eV,,,,,,,
Sb$_{2}$Te$_{2}$Se,0.1266999999999996,eV,,,,,,,
ErInPt,0.0,eV,,,,,,,