formula,Property Band Gap,Property Band Gap units,Property Band gap,Property Band gap units,Temperature (Property Band gap),Temperature (Property Band gap) units,Property Color,Temperature (Property Color),Temperature (Property Color) units
Sr$_{2}$CuWO$_{6}$,0.0,eV,,,,,,,
Er$_{2}$MoO$_{6}$,2.1979,eV,,,,,,,
Tm$_{2}$MoO$_{6}$,2.1664,eV,,,,,,,
Y$_{2}$MoO$_{6}$,2.2728,eV,,,,,,,
Sc$_{2}$CrB$_{6}$,0.0,eV,,,,,,,
BaZnPb,0.0,eV,,,,,,,
Ce(GeIr)$_{2}$,0.0,eV,,,,,,,
Zr$_{5}$AlSn$_{3}$,0.0,eV,,,,,,,
UCo$_{5}$,0.01330000000000009,eV,,,,,,,
Ce$_{3}$(SiNi$_{3}$)$_{2}$,0.0,eV,,,,,,,
NaCu$_{5}$C$_{6}$,1.7390999999999996,eV,,,,,,,
Cs$_{2}$LiVS$_{4}$,1.6711,eV,,,,,,,
Cs$_{3}$Ge$_{4}$Au,0.9304000000000001,eV,,,,,,,
Dy$_{2}$Te$_{4}$O$_{11}$,3.0585000000000004,eV,,,,,,,
In$_{5}$Se$_{5}$Br,0.7419999999999995,eV,,,,,,,
In$_{5}$S$_{5}$Br,1.1099999999999994,eV,,,,,,,
Ag$_{13}$OsO$_{6}$,0.0,eV,,,,,,,
SbN$_{9}$,2.8757,eV,,,,,,,
La$_{4}$B$_{4}$Br$_{5}$,0.0,eV,,,,,,,
CeSn$_{2}$Rh,7.999999999999119E-4,eV,,,,,,,
Fe$_{2}$P$_{2}$O$_{7}$,3.6939,eV,,,,,,,
RbUCrO$_{6}$,1.5963,eV,,,,,,,
Ce$_{5}$Pb$_{3}$O,0.0,eV,,,,,,,
CsAlCuF$_{6}$,0.0,eV,,,,,,,
GdAs,0.0,eV,,,,,,,
CeBRh$_{3}$,0.0,eV,,,,,,,
EuBRh$_{3}$,0.0,eV,,,,,,,
CsMnSb,0.0,eV,,,,,,,
Mn$_{3}$CuN,0.0,eV,,,,,,,
Fe$_{3}$NiN,0.0,eV,,,,,,,
Fe$_{3}$PtN,0.0,eV,,,,,,,
CaZnF$_{4}$,5.1236,eV,,,,,,,
GdIr$_{3}$,0.009000000000000341,eV,,,,,,,
GdP,0.0,eV,,,,,,,
GdS,0.0,eV,,,,,,,
GdSb,0.0,eV,,,,,,,
GdSe,0.0,eV,,,,,,,
TiSiNi,0.0,eV,,,,,,,
Si$_{3}$Ru$_{4}$,0.0,eV,,,,,,,
V$_{4}$O$_{7}$,0.7508999999999997,eV,,,,,,,
Si$_{2}$Cu$_{5}$S$_{7}$,0.0,eV,,,,,,,
CrO$_{3}$,2.2551,eV,,,,,,,
SiNi$_{2}$P,0.0,eV,,,,,,,
Ta$_{4}$Te$_{16}$Pd$_{3}$,0.0,eV,,,,,,,
Li$_{13}$In$_{3}$,0.0,eV,,,,,,,
InPd$_{3}$,0.0970999999999993,eV,,,,,,,
In$_{3}$Pd$_{2}$,0.0,eV,,,,,,,
InPt,0.0,eV,,,,,,,
In$_{2}$Pt$_{3}$,0.0,eV,,,,,,,
YInPt$_{2}$,0.0,eV,,,,,,,
Ni$_{10}$Sn$_{5}$P$_{3}$,0,eV,,,,,,,
CeHSO$_{5}$,0.019700000000000273,eV,,,,,,,
Ag$_{3}$RuO$_{4}$,0.0,eV,,,,,,,
Zr(MoO$_{4}$)$_{2}$,3.1151999999999997,eV,,,,,,,
HCN,3.5894,eV,,,,,,,
MnVCuO$_{4}$,1.0457,eV,,,,,,,
CsLaZnTe$_{3}$,1.8793000000000002,eV,,,,,,,
CsDyZnTe$_{3}$,1.7130999999999998,eV,,,,,,,
KCeH$_{2}$S$_{2}$O$_{9}$,0.02159999999999984,eV,,,,,,,
Ce(IO$_{3}$)$_{3}$,0.08059999999999956,eV,,,,,,,
GdCuS$_{2}$,0.9901,eV,,,,,,,
Na$_{2}$Cu$_{3}$H$_{8}$(CO$_{2}$)$_{8}$,0.1621,eV,,,,,,,
Y$_{2}$Cu$_{2}$O$_{5}$,0.09100000000000019,eV,,,,,,,
Eu$_{2}$BaZnO$_{5}$,0.029799999999999827,eV,,,,,,,
Er(Ni$_{2}$As)$_{2}$,0.013099999999999667,eV,,,,,,,
Ca(Ni$_{2}$Sn)$_{2}$,0.036399999999999544,eV,,,,,,,
Ta$_{3}$Al$_{2}$CoC,0.0,eV,,,,,,,
SmMnSbO,0.0,eV,,,,,,,
GdScS$_{3}$,1.1101999999999999,eV,,,,,,,
PuRh$_{3}$C,0.03470000000000084,eV,,,,,,,
Ce$_{5}$Ge$_{3}$,0.0,eV,,,,,,,
La$_{5}$Sn$_{3}$,0.0,eV,,,,,,,
V$_{2}$FeO$_{4}$,0.0,eV,,,,,,,
La(SiRu)$_{2}$,0.0,eV,,,,,,,
Nd$_{5}$Sn$_{3}$,0.0,eV,,,,,,,
Ba$_{2}$(IrO$_{3}$)$_{3}$,0.0,eV,,,,,,,
Rb$_{2}$V$_{3}$O$_{8}$,2.0559999999999996,eV,,,,,,,
Y$_{5}$Ga$_{3}$,0.0,eV,,,,,,,
Zr$_{5}$Sn$_{3}$,0.0,eV,,,,,,,
GdCuSe$_{2}$,0.7496,eV,,,,,,,
LiCr(SiO$_{3}$)$_{2}$,3.1394,eV,,,,,,,
CaCr$_{2}$Cu$_{3}$(SbO$_{6}$)$_{2}$,0.6993,eV,,,,,,,
CsB$_{5}$O$_{8}$,5.8969000000000005,eV,,,,,,,
MoO$_{2}$,0.0,eV,,,,,,,
Ca$_{2}$NiOsO$_{6}$,0.0,eV,,,,,,,
Dy$_{3}$CuSnSe$_{7}$,0.9903999999999997,eV,,,,,,,
SrSm$_{2}$Nb$_{2}$O$_{9}$,2.1115,eV,,,,,,,
K$_{2}$BeH$_{4}$(SO$_{5}$)$_{2}$,5.2395,eV,,,,,,,
Sr$_{2}$CoMoO$_{6}$,0.0,eV,,,,,,,
Cu$_{2}$H$_{3}$ClO$_{3}$,0.0,eV,,,,,,,
Y$_{4}$Ga$_{12}$Pt,0.0,eV,,,,,,,
K$_{3}$B$_{12}$H$_{12}$Br,4.7863,eV,,,,,,,
Fe$_{3}$BO$_{5}$,1.0194999999999994,eV,,,,,,,
Nb$_{12}$O$_{29}$,0.0777000000000001,eV,,,,,,,
CsN$_{3}$,4.2196,eV,,,,,,,
Na(CoO$_{2}$)$_{2}$,0.581,eV,,,,,,,
CeF$_{3}$,0.1993999999999998,eV,,,,,,,
NdIn$_{5}$Rh,0.0,eV,,,,,,,
Cs$_{2}$AgF$_{4}$,0.1767,eV,,,,,,,
La$_{3}$CuSnS$_{7}$,1.7763999999999998,eV,,,,,,,
Ce$_{3}$CuSnS$_{7}$,0.0,eV,,,,,,,
V$_{2}$O$_{5}$,1.6982,eV,,,,,,,
CsCeCuS$_{3}$,0.7010999999999998,eV,,,,,,,
CaMn$_{4}$(CuO$_{4}$)$_{3}$,0.0,eV,,,,,,,
BaNpPH$_{2}$O$_{7}$,0.03410000000000046,eV,,,,,,,
USb$_{2}$Au,0.0,eV,,,,,,,
LaNiSnH,0.0,eV,,,,,,,
PrNiSnH,0.0,eV,,,,,,,
NdNiSnH,0.0,eV,,,,,,,
PrNiSnH$_{2}$,0.0,eV,,,,,,,
NdNiSnH$_{2}$,0.0,eV,,,,,,,
MoO$_{3}$,1.9418000000000002,eV,,,,,,,
Fe$_{2}$SiO$_{4}$,2.6766,eV,,,,,,,
Fe(SbO$_{2}$)$_{2}$,0.5327000000000002,eV,,,,,,,
MnCuO$_{2}$,0.00749999999999984,eV,,,,,,,
Tb$_{5}$CoSb$_{2}$,0.0,eV,,,,,,,
Dy$_{5}$CoSb$_{2}$,0.0,eV,,,,,,,
Ho$_{5}$CoSb$_{2}$,0.0,eV,,,,,,,
Er$_{5}$CoSb$_{2}$,0.0,eV,,,,,,,
EuCuSeO,0.0,eV,,,,,,,
Na$_{2}$Al$_{2}$Si$_{3}$(HO$_{3}$)$_{4}$,3.4414000000000002,eV,,,,,,,
TbCoC$_{2}$,0.0,eV,,,,,,,
FeSiO$_{3}$,3.2430999999999996,eV,,,,,,,
Gd$_{2}$Zr$_{2}$O$_{7}$,0.0,eV,,,,,,,
ZnCuAsHO$_{5}$,0.3267,eV,,,,,,,
MnNiAs,0.0,eV,,,,,,,
NaFe(SiO$_{3}$)$_{2}$,2.8630999999999998,eV,,,,,,,
NaV$_{6}$O$_{11}$,0.3573000000000004,eV,,,,,,,
Fe$_{3}$Mo$_{3}$N,0.013299999999999201,eV,,,,,,,
PrFeAsO,0.274,eV,,,,,,,
SrFeO$_{3}$,0.3320000000000003,eV,,,,,,,
CrCuO$_{2}$,1.6653000000000002,eV,,,,,,,
CuWO$_{4}$,0.11249999999999982,eV,,,,,,,
Pb$_{2}$CBr$_{2}$O$_{3}$,2.7849000000000004,eV,,,,,,,
EuSbO$_{4}$,0.0,eV,,,,,,,
CuNi$_{2}$(PO$_{4}$)$_{2}$,0.9108,eV,,,,,,,
LaMg$_{2}$Cu$_{9}$,0.023800000000000487,eV,,,,,,,
TlPPbS$_{4}$,2.074,eV,,,,,,,
Ca(CoO$_{2}$)$_{2}$,0.11619999999999964,eV,,,,,,,
Cu$_{2}$PHO$_{5}$,0.0,eV,,,,,,,
Ga$_{2}$NiP$_{3}$H$_{8}$NO$_{14}$,4.1317,eV,,,,,,,
VCu$_{3}$O$_{4}$,0.10090000000000021,eV,,,,,,,
Gd(IO$_{3}$)$_{3}$,2.9587,eV,,,,,,,
CsUAgSe$_{3}$,5.999999999999339E-4,eV,,,,,,,
VBiPbO$_{5}$,2.9091,eV,,,,,,,
KBi(WO$_{4}$)$_{2}$,2.7093000000000003,eV,,,,,,,
CoPO$_{4}$,1.0287000000000002,eV,,,,,,,
Eu$_{3}$NbO$_{7}$,0.017900000000000027,eV,,,,,,,
DyAgPb,0.0,eV,,,,,,,
HoCoSi,0.0,eV,,,,,,,
Hf$_{5}$Sn$_{4}$,0.0,eV,,,,,,,
Cs$_{4}$Sn$_{2}$Au$_{7}$,0,eV,,,,,,,
Zn$_{5}$B$_{3}$Rh$_{7}$,0.0,eV,,,,,,,
Er$_{4}$Si$_{9}$Ir$_{13}$,0.0,eV,,,,,,,
LiFe(SiO$_{3}$)$_{2}$,2.7033,eV,,,,,,,
SrAsH$_{3}$O$_{5}$,3.8952999999999998,eV,,,,,,,
Cs$_{2}$AgSbS$_{4}$,1.4883000000000002,eV,,,,,,,
K$_{3}$Mn$_{2}$O$_{8}$,0.008699999999999986,eV,,,,,,,
Ba$_{2}$Co$_{9}$O$_{14}$,0.013799999999999812,eV,,,,,,,
SrGaH$_{4}$,0.0,eV,,,,,,,
CaCoAsHO$_{5}$,2.0447999999999995,eV,,,,,,,
As$_{3}$Pb$_{5}$ClO$_{9}$,2.6399000000000004,eV,,,,,,,
SrV$_{3}$O$_{7}$,2.3876,eV,,,,,,,
InTeO$_{3}$F,3.1763999999999997,eV,,,,,,,
MnCoH$_{18}$(CN$_{2}$)$_{6}$,0.13129999999999997,eV,,,,,,,
CaCuAsHO$_{5}$,0.008999999999999897,eV,,,,,,,
VCuO$_{4}$,0.1654,eV,,,,,,,
V$_{2}$O$_{5}$,2.4242999999999997,eV,,,,,,,
CuO,0.013100000000000112,eV,,,,,,,
CuO,0.14659999999999984,eV,,,,,,,
Fe(Se$_{2}$O$_{5}$)$_{2}$,0.0,eV,,,,,,,
Sb(MoO$_{4}$)$_{2}$,0.3156000000000001,eV,,,,,,,
Ni(WO$_{4}$)$_{2}$,0.4393,eV,,,,,,,
Li$_{3}$Cu$_{2}$(WO$_{4}$)$_{4}$,0.0,eV,,,,,,,
MnBO$_{3}$,0.0035000000000000586,eV,,,,,,,
Y(NiGe)$_{2}$,0.0,eV,,,,,,,
Pr(CoSi)$_{2}$,0.0,eV,,,,,,,
K$_{6}$HgS$_{4}$,1.7161,eV,,,,,,,
K$_{6}$Ge$_{2}$O$_{7}$,3.0751,eV,,,,,,,
Nd$_{2}$Te$_{4}$O$_{11}$,3.2832000000000003,eV,,,,,,,
Na$_{3}$AlP$_{2}$,1.3462999999999998,eV,,,,,,,
MnNi$_{2}$Sb,0.0,eV,,,,,,,
Na$_{3}$FeSe$_{3}$,0.0,eV,,,,,,,
ZnSO$_{4}$,3.8158,eV,,,,,,,
LiCuO,1.4376000000000002,eV,,,,,,,
Y(CoSi)$_{2}$,0.0,eV,,,,,,,
ErGe$_{3}$,0.0,eV,,,,,,,
K$_{2}$CoS$_{2}$,0.0,eV,,,,,,,
YPO$_{4}$,5.8009,eV,,,,,,,
LaMg$_{2}$Ni$_{9}$,0.0048000000000003595,eV,,,,,,,
Dy(CoB)$_{2}$,0.0,eV,,,,,,,
Zr$_{2}$SbP,0.0,eV,,,,,,,
HfZn$_{2}$,0.0,eV,,,,,,,
Na$_{2}$SeO$_{4}$,3.3557,eV,,,,,,,
Sn$_{3}$Te$_{3}$Ir$_{2}$,0.3959999999999999,eV,,,,,,,
Ag$_{3}$AsSe$_{3}$,0.8452999999999999,eV,,,,,,,
Zn(RhO$_{2}$)$_{2}$,0.9323999999999999,eV,,,,,,,
NbAlCo$_{2}$,0.0,eV,,,,,,,
TmTl,0.0,eV,,,,,,,
HoSi$_{2}$Ni,0.0,eV,,,,,,,
Cd$_{4}$GeS$_{6}$,1.5262,eV,,,,,,,
La$_{2}$SiO$_{5}$,4.458,eV,,,,,,,
HoNiC$_{2}$,0,eV,,,,,,,
ThP$_{2}$O$_{7}$,5.3892999999999995,eV,,,,,,,
Ca(PRu)$_{2}$,0.0,eV,,,,,,,
KNO$_{3}$,2.9158,eV,,,,,,,
LiGa$_{2}$Pd,0.0,eV,,,,,,,
LuSb,0.14869999999999983,eV,,,,,,,
AgBF$_{5}$,0.0,eV,,,,,,,
Sm(GeRh)$_{2}$,0.0,eV,,,,,,,
LaRhO$_{3}$,0.5939999999999994,eV,,,,,,,
Th(SiRu)$_{2}$,0.0,eV,,,,,,,
Ca(AsPd)$_{2}$,0.0,eV,,,,,,,
Sm(NiGe)$_{2}$,0.0,eV,,,,,,,
AlSiP$_{3}$,0.2894999999999994,eV,,,,,,,
Cu$_{4}$P$_{2}$O$_{9}$,0.0,eV,,,,,,,
NdCoSi$_{2}$,0.0,eV,,,,,,,
Zr$_{2}$(Ni$_{7}$B$_{2}$)$_{3}$,0.0,eV,,,,,,,
Ce(SiAu)$_{2}$,0.0,eV,,,,,,,
NaInO$_{2}$,1.9142000000000001,eV,,,,,,,
Y(SiNi)$_{2}$,0,eV,,,,,,,
V$_{2}$CuS$_{4}$,0.0,eV,,,,,,,
Ti$_{5}$Re$_{24}$,0.0,eV,,,,,,,
LuSnPd$_{2}$,0.0,eV,,,,,,,
Nd$_{2}$Fe$_{14}$B,0.0,eV,,,,,,,
K$_{2}$BeF$_{4}$,6.8711,eV,,,,,,,
ScNiSn,0.0,eV,,,,,,,
AlAsO$_{4}$,3.865,eV,,,,,,,
USb,0.0,eV,,,,,,,
ZnSnAs$_{2}$,0.008700000000000152,eV,,,,,,,
SrZrS$_{3}$,1.1848000000000005,eV,,,,,,,
ErB$_{2}$Ir$_{3}$,0.0,eV,,,,,,,
PrBRh$_{3}$,0.0,eV,,,,,,,
Sc(PO$_{3}$)$_{3}$,5.1542,eV,,,,,,,
CdSnP$_{2}$,0.2684000000000002,eV,,,,,,,
TiTe$_{3}$O$_{8}$,2.7258,eV,,,,,,,
NdNiGe$_{2}$,0.0,eV,,,,,,,
Ho(SiOs)$_{2}$,0.0,eV,,,,,,,
CuAu,0.0,eV,,,,,,,
HfAlCo$_{2}$,0.0,eV,,,,,,,
ReTeS,0.0719000000000003,eV,,,,,,,
GdAlO$_{3}$,3.2382,eV,,,,,,,
BaSi$_{2}$O$_{5}$,4.8574,eV,,,,,,,
K$_{2}$SeO$_{4}$,3.5911999999999997,eV,,,,,,,
Dy(NiP)$_{2}$,0.0,eV,,,,,,,
SrTiO$_{3}$,2.1033999999999997,eV,,,,,,,
CrS,0.0,eV,,,,,,,
GaCuS$_{2}$,0.7056000000000004,eV,,,,,,,
NdSiRu,0.0,eV,,,,,,,
Ba$_{3}$As$_{14}$,1.1763,eV,,,,,,,
DyPS$_{4}$,2.1596999999999995,eV,,,,,,,
Ti$_{2}$SbP,0.0,eV,,,,,,,
Zn(CN)$_{2}$,5.9133,eV,,,,,,,
KNbO$_{3}$,2.0585,eV,,,,,,,
Na$_{5}$SnAs$_{3}$,0.39369999999999994,eV,,,,,,,
NbSe$_{3}$,0.0,eV,,,,,,,
Ca$_{4}$CN$_{4}$,1.7906999999999997,eV,,,,,,,
KCuC$_{2}$,1.9346,eV,,,,,,,
RbAlF$_{4}$,6.9365,eV,,,,,,,
CaTl$_{3}$,0.0,eV,,,,,,,
Ho(GeRu)$_{2}$,0,eV,,,,,,,
Ca$_{4}$P$_{2}$O$_{9}$,4.4843,eV,,,,,,,
Np(Al$_{2}$Cu)$_{4}$,0.0,eV,,,,,,,
U$_{2}$SbN$_{2}$,0,eV,,,,,,,
BaCd,0.0,eV,,,,,,,
KPrTe$_{2}$,1.2799999999999998,eV,,,,,,,
ThTi$_{2}$O$_{6}$,2.975,eV,,,,,,,
Ca$_{3}$TeO$_{6}$,3.2468999999999997,eV,,,,,,,
U$_{2}$Zn$_{17}$,0.0,eV,,,,,,,
In$_{2}$Ge$_{2}$O$_{7}$,1.7955,eV,,,,,,,
AgCO$_{2}$,2.3379000000000003,eV,,,,,,,
U(CrSi)$_{2}$,0.0,eV,,,,,,,
SrSO$_{4}$,5.9094,eV,,,,,,,
Y(FeSi)$_{2}$,0.0,eV,,,,,,,
SmMg$_{2}$,0.0,eV,,,,,,,
Ca(SiNi)$_{2}$,0.0,eV,,,,,,,
LaNbO$_{4}$,3.9345,eV,,,,,,,
La$_{2}$RuO$_{5}$,0.0,eV,,,,,,,
Nd$_{4}$Sb$_{3}$,0.0,eV,,,,,,,
Ta$_{27}$S$_{50}$,0.009400000000000297,eV,,,,,,,
Si$_{6}$O$_{13}$,2.0845000000000002,eV,,,,,,,
B$_{8}$O,2.4459,eV,,,,,,,
Tb$_{11}$S$_{16}$,0.0,eV,,,,,,,
B$_{4}$C,0.0,eV,,,,,,,
Mo$_{15}$N$_{16}$,0.0,eV,,,,,,,
Mg(GaO$_{2}$)$_{2}$,2.8099,eV,,,,,,,
Li$_{7}$Ti$_{16}$O$_{32}$,0.0,eV,,,,,,,
Ba$_{6}$Cu$_{34}$S$_{27}$,0.010600000000000165,eV,,,,,,,
MgAl$_{2}$O$_{4}$,4.1229,eV,,,,,,,
Ca$_{12}$Al$_{14}$O$_{33}$,1.9743,eV,,,,,,,
MgAl$_{2}$O$_{4}$,4.5550999999999995,eV,,,,,,,
Li$_{13}$Ti$_{22}$O$_{48}$,0.0,eV,,,,,,,
Ca$_{4}$Nb$_{2}$O$_{9}$,2.4271000000000003,eV,,,,,,,
Gd$_{2}$Ti$_{2}$O$_{7}$,2.6375999999999995,eV,,,,,,,
MgAl$_{6}$O$_{10}$,3.7906000000000004,eV,,,,,,,
PrZr$_{3}$F$_{15}$,5.467700000000001,eV,,,,,,,
MgAl$_{6}$O$_{10}$,2.9525000000000006,eV,,,,,,,
Tm$_{2}$TiO$_{5}$,1.8640999999999996,eV,,,,,,,
Ti$_{20}$(Sb$_{3}$Se)$_{3}$,0.0,eV,,,,,,,
Li$_{15}$Cr$_{2}$N$_{9}$,1.3186,eV,,,,,,,
Al$_{23}$B$_{50}$,0.0,eV,,,,,,,
Sm$_{2}$Zr$_{2}$O$_{7}$,2.8528000000000002,eV,,,,,,,
Mg(GaO$_{2}$)$_{2}$,2.2577,eV,,,,,,,
Dy$_{2}$TiO$_{5}$,2.5157000000000003,eV,,,,,,,
Al$_{6}$SnTe$_{10}$,1.4355999999999995,eV,,,,,,,
PrAl$_{22}$O$_{34}$,0.2926000000000002,eV,,,,,,,
Tb$_{2}$TiO$_{5}$,2.4300000000000006,eV,,,,,,,
Sr(FeS$_{2}$)$_{2}$,0.0,eV,,,,,,,
LiAl$_{5}$O$_{8}$,5.2491,eV,,,,,,,
LaAlO$_{3}$,3.4924,eV,,,,,,,
Hf$_{3}$(Bi$_{5}$Cl$_{9}$)$_{2}$,0.0,eV,,,,,,,
Cu$_{4}$Sn$_{7}$S$_{16}$,0.006999999999999673,eV,,,,,,,
YZr$_{3}$F$_{15}$,5.5173000000000005,eV,,,,,,,
Ca$_{3}$(AsO$_{4}$)$_{2}$,3.6298000000000004,eV,,,,,,,
Ag$_{5}$(Sn$_{3}$S$_{8}$)$_{2}$,0.0,eV,,,,,,,
Li$_{19}$(FeAs)$_{20}$,7.00000000000145E-4,eV,,,,,,,
CuAsS,0.0,eV,,,,,,,
Li$_{17}$Nb$_{18}$O$_{54}$,3.3221,eV,,,,,,,
Zr$_{3}$TlF$_{15}$,3.4196,eV,,,,,,,
Sr$_{4}$U$_{2}$O$_{9}$,0.00140000000000029,eV,,,,,,,
In$_{4}$GeSe$_{4}$,0.6203000000000003,eV,,,,,,,
SiO$_{2}$,5.5611999999999995,eV,,,,,,,
Sr$_{14}$MnAs$_{11}$,0.10969999999999969,eV,,,,,,,
Na$_{4}$Sn$_{3}$O$_{8}$,2.3778000000000006,eV,,,,,,,
Dy(CrS$_{2}$)$_{3}$,0.2999999999999998,eV,,,,,,,
Nb$_{4}$CrS$_{8}$,0.0,eV,,,,,,,
Li$_{14}$Ti$_{21}$O$_{48}$,0.0,eV,,,,,,,
Li$_{4}$Mg$_{23}$B$_{54}$,0.013700000000000045,eV,,,,,,,
Y$_{4}$Cu$_{7}$O$_{16}$,0.0019000000000000128,eV,,,,,,,
Ta$_{24}$Cu$_{13}$O$_{72}$,0.0020999999999999908,eV,,,,,,,
Li$_{34}$(YSb$_{2}$)$_{13}$,0.019699999999999385,eV,,,,,,,
GdAl$_{22}$O$_{34}$,0.061799999999999855,eV,,,,,,,
GdZr$_{3}$F$_{15}$,4.4567,eV,,,,,,,
Ca$_{8}$H$_{3}$N$_{4}$,0.4756,eV,,,,,,,
Ni$_{5}$(Mo$_{3}$Se$_{4}$)$_{8}$,0.0,eV,,,,,,,
TlW$_{3}$Br$_{7}$,2.3106,eV,,,,,,,
Ba$_{14}$AlSb$_{11}$,0.5247999999999999,eV,,,,,,,
MgAl$_{2}$O$_{4}$,4.3367,eV,,,,,,,
Sc$_{11}$Nb$_{3}$O$_{24}$,2.5343,eV,,,,,,,
Li$_{10}$Mg$_{7}$Cl$_{24}$,4.438599999999999,eV,,,,,,,
MgAl$_{2}$O$_{4}$,4.1392,eV,,,,,,,
U$_{7}$(Te$_{12}$O$_{35}$)$_{2}$,1.6114999999999995,eV,,,,,,,
Mg$_{5}$Al$_{34}$O$_{56}$,0.17269999999999897,eV,,,,,,,
Y$_{6}$Zr$_{22}$O$_{53}$,0.43400000000000016,eV,,,,,,,
Ho$_{10}$Ti$_{6}$O$_{27}$,1.6775000000000002,eV,,,,,,,
LaTa$_{3}$O$_{9}$,2.7517000000000005,eV,,,,,,,
Er$_{2}$TiO$_{5}$,2.2043,eV,,,,,,,
Mg$_{7}$Al$_{22}$O$_{40}$,3.7842000000000002,eV,,,,,,,
Ga$_{41}$N$_{11}$O$_{45}$,0.4615999999999998,eV,,,,,,,
Ga$_{23}$N$_{5}$O$_{27}$,1.1327000000000003,eV,,,,,,,
Li$_{15}$Nb$_{16}$O$_{48}$,3.3587000000000002,eV,,,,,,,
Ta$_{2}$CuO$_{6}$,0.020300000000000207,eV,,,,,,,
Mg$_{2}$SiO$_{4}$,2.3731,eV,,,,,,,
Tb$_{6}$CdS$_{10}$,2.0746,eV,,,,,,,
Ba$_{4}$Ti$_{4}$O$_{9}$,0.0,eV,,,,,,,
Ce$_{6}$Y$_{26}$O$_{51}$,1.6913,eV,,,,,,,
Rb$_{16}$Sn$_{16}$F$_{47}$,0.9217,eV,,,,,,,
KAuF$_{4}$,2.4468,eV,,,,,,,
Ba$_{23}$U$_{8}$O$_{48}$,0.0,eV,,,,,,,
Yb(La$_{3}$Se$_{5}$)$_{2}$,1.6795,eV,,,,,,,
Fe$_{6}$Ni$_{9}$S$_{20}$,0.0032000000000005357,eV,,,,,,,
Li$_{5}$P$_{2}$N$_{5}$,3.4494,eV,,,,,,,
Ho$_{2}$TiO$_{5}$,2.2426000000000004,eV,,,,,,,
Al$_{2}$CuO$_{4}$,0.008000000000000007,eV,,,,,,,
Al$_{22}$PbO$_{34}$,3.595,eV,,,,,,,
MgSiO$_{3}$,4.5226,eV,,,,,,,
Na$_{3}$(Pt$_{3}$O$_{4}$)$_{4}$,0.015600000000000058,eV,,,,,,,
K$_{4}$Si$_{23}$,0.0,eV,,,,,,,
CsB$_{9}$O$_{13}$,3.1242,eV,,,,,,,
Ba$_{8}$Nb$_{7}$S$_{24}$,0.09649999999999981,eV,,,,,,,
Ca$_{4}$Nb$_{2}$O$_{9}$,2.4215,eV,,,,,,,
KMo$_{3}$Br$_{7}$,2.3695,eV,,,,,,,
NaTa$_{4}$O$_{8}$,0.0,eV,,,,,,,
UBN,0.0,eV,,,,,,,
Y$_{2}$Zr$_{24}$O$_{51}$,2.832,eV,,,,,,,
Ca$_{9}$PrF$_{20}$,0.021300000000000097,eV,,,,,,,
Ta$_{2}$Zn$_{4}$O$_{9}$,2.9024,eV,,,,,,,
Ag$_{7}$(PbO$_{3}$)$_{3}$,0.04939999999999989,eV,,,,,,,
TlBi$_{25}$O$_{39}$,2.1277999999999997,eV,,,,,,,
Ca$_{3}$(PO$_{4}$)$_{2}$,4.9795,eV,,,,,,,
Nd$_{12}$Zr$_{12}$O$_{37}$,2.0000000000042206E-4,eV,,,,,,,
Tl$_{4}$SnSe$_{3}$,0.6489999999999996,eV,,,,,,,
Cd(GaO$_{2}$)$_{2}$,0.6883000000000004,eV,,,,,,,
Zr$_{6}$NCl$_{15}$,1.4089000000000003,eV,,,,,,,
Sr$_{2}$NF,1.2984,eV,,,,,,,
Sr(ReO$_{3}$)$_{3}$,0.0,eV,,,,,,,
Ho$_{2}$CdSe$_{4}$,0.7393000000000001,eV,,,,,,,
Ca$_{13}$Y$_{6}$F$_{43}$,0.6283000000000003,eV,,,,,,,
Cd(GaO$_{2}$)$_{2}$,0.6267999999999998,eV,,,,,,,
Ca$_{3}$(BN$_{2}$)$_{2}$,2.4178,eV,,,,,,,
GaAsO$_{4}$,1.0653000000000001,eV,,,,,,,
Al$_{2}$CuO$_{4}$,0.010299999999999976,eV,,,,,,,
Ta$_{16}$(Cu$_{3}$O$_{16}$)$_{3}$,0.0051000000000001044,eV,,,,,,,
Ge(PbS$_{2}$)$_{2}$,1.9788000000000001,eV,,,,,,,
Ga$_{4}$GeS$_{4}$,1.7294,eV,,,,,,,
HoCo$_{3}$B$_{2}$,0.0,eV,,,,,,,
La$_{10}$(Si$_{2}$O$_{9}$)$_{3}$,3.3825000000000003,eV,,,,,,,
P$_{4}$N$_{6}$O,4.162699999999999,eV,,,,,,,
MgAl$_{2}$O$_{4}$,3.377600000000001,eV,,,,,,,
Sr$_{17}$(Ta$_{5}$S$_{21}$)$_{2}$,1.8116999999999999,eV,,,,,,,
Li$_{4}$Mn$_{3}$Cl$_{10}$,1.8259999999999998,eV,,,,,,,
Li$_{7}$Nb$_{8}$O$_{24}$,3.2105,eV,,,,,,,
MgAl$_{2}$O$_{4}$,3.3267000000000007,eV,,,,,,,
Li$_{2}$UBr$_{6}$,0.14149999999999996,eV,,,,,,,
Y$_{5}$U$_{2}$O$_{12}$,0.0016999999999995907,eV,,,,,,,
LiGa$_{5}$O$_{8}$,2.2544000000000004,eV,,,,,,,
Ba$_{3}$Ti$_{20}$O$_{40}$,0.0,eV,,,,,,,
MgAl$_{2}$O$_{4}$,4.183400000000001,eV,,,,,,,
YbZr$_{3}$F$_{15}$,5.5838,eV,,,,,,,
Li$_{5}$GeN$_{3}$,1.3538999999999999,eV,,,,,,,
Ce$_{10}$Y$_{22}$O$_{53}$,1.8836,eV,,,,,,,
Sr$_{25}$Cl$_{52}$,0.0,eV,,,,,,,
Dy$_{11}$S$_{16}$,0.0,eV,,,,,,,
SrAl$_{22}$O$_{34}$,4.4761,eV,,,,,,,
Na$_{3}$B$_{5}$Se$_{9}$,2.8213,eV,,,,,,,
Mg(AlB$_{14}$)$_{2}$,0.7667999999999999,eV,,,,,,,
Ta$_{32}$Cu$_{17}$O$_{96}$,0.006600000000000161,eV,,,,,,,
Nd$_{10}$Ti$_{12}$O$_{39}$,1.1720000000000002,eV,,,,,,,
Nd$_{6}$F$_{17}$,0.6963000000000008,eV,,,,,,,
Ti$_{9}$ZnS$_{16}$,0.0,eV,,,,,,,
YbPr$_{11}$Se$_{16}$,0.0,eV,,,,,,,
Li$_{5}$Nb$_{6}$O$_{18}$,0.0,eV,,,,,,,
Li$_{28}$Mg$_{22}$N$_{25}$,0.005300000000000082,eV,,,,,,,
Mg$_{17}$(As$_{3}$O$_{16}$)$_{2}$,3.1126000000000005,eV,,,,,,,
MgAl$_{6}$O$_{10}$,3.0397999999999996,eV,,,,,,,
LuZr$_{3}$F$_{15}$,5.5183,eV,,,,,,,
MgAl$_{2}$O$_{4}$,4.020999999999999,eV,,,,,,,
Ho$_{2}$CdS$_{4}$,1.3568999999999998,eV,,,,,,,
Li$_{4}$Ti$_{7}$O$_{16}$,2.8296,eV,,,,,,,
Li$_{2}$PtO$_{3}$,1.9623999999999997,eV,,,,,,,
MgAl$_{2}$O$_{4}$,4.326599999999999,eV,,,,,,,
Al$_{24}$Zn$_{3}$O$_{40}$,0.0,eV,,,,,,,
U$_{7}$(Pd$_{3}$S$_{4}$)$_{8}$,0.0,eV,,,,,,,
Li$_{3}$Ti$_{8}$O$_{16}$,0.0,eV,,,,,,,
Ga$_{6}$SnTe$_{10}$,0.8614000000000006,eV,,,,,,,
Li$_{23}$(MnAs)$_{20}$,0.0,eV,,,,,,,
KW$_{3}$Br$_{7}$,2.6737,eV,,,,,,,
Hf$_{3}$Sc$_{4}$O$_{12}$,4.1098,eV,,,,,,,
Ce$_{14}$Y$_{18}$O$_{55}$,1.8062000000000005,eV,,,,,,,
K$_{2}$Ba$_{3}$Sb$_{4}$,0.44410000000000016,eV,,,,,,,
Zr$_{3}$(Bi$_{5}$Br$_{9}$)$_{2}$,0.0,eV,,,,,,,
Tl$_{4}$Ag$_{18}$Te$_{11}$,0.0,eV,,,,,,,
La$_{6}$Zr$_{8}$F$_{47}$,2.999999999993008E-4,eV,,,,,,,
Li$_{47}$Cu$_{7}$N$_{18}$,0.2892000000000001,eV,,,,,,,
Ca$_{12}$Al$_{14}$O$_{33}$,2.1037999999999997,eV,,,,,,,
Er$_{2}$CdS$_{4}$,1.0895,eV,,,,,,,
Li$_{2}$IrO$_{3}$,0.008900000000000574,eV,,,,,,,
Ca$_{20}$Er$_{10}$F$_{69}$,0.6417000000000002,eV,,,,,,,
Na$_{26}$In$_{4}$O$_{19}$,1.2783,eV,,,,,,,
Ba$_{16}$Bi$_{16}$O$_{45}$,0.03340000000000032,eV,,,,,,,
Ho$_{7}$Co$_{6}$Sn$_{23}$,0.0,eV,,,,,,,
SiO$_{2}$,5.558,eV,,,,,,,
Sb$_{24}$(Cl$_{7}$F$_{17}$)$_{5}$,2.5007,eV,,,,,,,
Hg$_{7}$(Sb$_{2}$Br$_{3}$)$_{2}$,1.0448,eV,,,,,,,
Ca$_{14}$MnP$_{11}$,0.08449999999999935,eV,,,,,,,
Yb$_{4}$Zr$_{3}$O$_{12}$,0.008800000000000141,eV,,,,,,,
LaAl$_{22}$O$_{34}$,0.0011999999999989797,eV,,,,,,,
Pr$_{3}$IrO$_{7}$,0.0,eV,,,,,,,
Ba$_{14}$MnSb$_{11}$,0.016499999999999737,eV,,,,,,,
Dy(CrS$_{2}$)$_{3}$,0.28310000000000013,eV,,,,,,,
Na$_{11}$Ti$_{10}$O$_{21}$,0.006800000000000139,eV,,,,,,,
Sr$_{8}$Ga$_{16}$S$_{31}$,0.0,eV,,,,,,,
Tl$_{9}$SbSe$_{6}$,0.0,eV,,,,,,,
Ba$_{2}$(Mo$_{2}$S$_{3}$)$_{3}$,0.0,eV,,,,,,,
Ta$_{2}$CuO$_{6}$,0.04659999999999975,eV,,,,,,,
Zr$_{3}$BiF$_{15}$,5.2035,eV,,,,,,,
Er$_{2}$CdSe$_{4}$,0.9488000000000001,eV,,,,,,,
Sr$_{17}$(Ta$_{5}$S$_{21}$)$_{2}$,1.7864000000000002,eV,,,,,,,
Fe$_{3}$(CuS$_{5}$)$_{2}$,0.01359999999999939,eV,,,,,,,
Cu$_{29}$(Ag$_{6}$As$_{7}$)$_{2}$,0.025599999999999845,eV,,,,,,,
CaNb$_{4}$O$_{8}$,0.0,eV,,,,,,,
Dy$_{2}$Ti$_{2}$O$_{7}$,2.5119000000000002,eV,,,,,,,
MgAl$_{6}$O$_{10}$,2.159799999999999,eV,,,,,,,
Li$_{5}$B$_{7}$S$_{13}$,3.5527999999999995,eV,,,,,,,
Li$_{18}$Fe$_{5}$N$_{12}$,0.006000000000000227,eV,,,,,,,
KAl$_{11}$O$_{17}$,4.602399999999999,eV,,,,,,,
Al$_{2}$CuO$_{4}$,0.030400000000000205,eV,,,,,,,
Li$_{47}$Mn$_{5}$As$_{19}$,0.022400000000000198,eV,,,,,,,
Li$_{5}$V$_{5}$Cl$_{16}$,1.1269,eV,,,,,,,
Zr$_{3}$Sc$_{4}$O$_{12}$,3.9251,eV,,,,,,,
Ca$_{14}$MnAs$_{11}$,0.03270000000000017,eV,,,,,,,
Nd$_{9}$Ti$_{10}$O$_{30}$,0.002200000000000202,eV,,,,,,,
EuZr$_{3}$F$_{15}$,3.953,eV,,,,,,,
Ho$_{5}$(Mo$_{3}$S$_{4}$)$_{12}$,0.0118999999999998,eV,,,,,,,
TiZn$_{2}$O$_{4}$,2.04,eV,,,,,,,
Li$_{2}$PdO$_{3}$,6.999999999997009E-4,eV,,,,,,,
CsBaIn$_{2}$(PO$_{4}$)$_{3}$,4.0908,eV,,,,,,,
AlCu$_{2}$Sb(HO)$_{12}$,0.23320000000000007,eV,,,,,,,
SrLa$_{7}$TiGa$_{7}$O$_{24}$,1.7511999999999999,eV,,,,,,,
Na$_{13}$Ca$_{7}$S$_{12}$(O$_{16}$F)$_{3}$,5.2446,eV,,,,,,,
Yb(CoSi)$_{2}$,0.0,eV,,,,,,,
Na$_{2}$Zr$_{12}$B$_{2}$I$_{5}$Cl$_{23}$,1.2721,eV,,,,,,,
Yb$_{3}$Rb$_{16}$Ti$_{13}$(PO$_{4}$)$_{24}$,3.9999999999995595E-4,eV,,,,,,,
NdAl$_{6}$Si$_{30}$(N$_{15}$O)$_{3}$,2.9631000000000007,eV,,,,,,,