formula,Property Band Gap,Property Band Gap units,Property Band gap,Property Band gap units,Temperature (Property Band gap),Temperature (Property Band gap) units,Property Color,Temperature (Property Color),Temperature (Property Color) units
ScGa$_{5}$Ni,0.055000000000000604,eV,,,,,,,
Ta$_{4}$C$_{3}$,0,eV,,,,,,,
HfGa$_{5}$Co,0.036399999999999544,eV,,,,,,,
Pr$_{2}$Fe$_{2}$Si$_{2}$C,0,eV,,,,,,,
Nb$_{2}$VSe$_{4}$,0,eV,,,,,,,
NpGa$_{5}$Ni,0.01750000000000007,eV,,,,,,,
Eu$_{2}$TiO$_{4}$,0,eV,,,,,,,
Rb$_{2}$PdCl$_{4}$,1.5933,eV,,,,,,,
Ti$_{2}$VSe$_{4}$,0,eV,,,,,,,
Al$_{2}$FeS$_{4}$,0,eV,,,,,,,
Y$_{2}$Re$_{2}$Si$_{2}$C,0,eV,,,,,,,
Eu$_{2}$AlNO$_{3}$,0,eV,,,,,,,
Ti(CrTe$_{2}$)$_{2}$,0,eV,,,,,,,
Cs$_{2}$PuO$_{4}$,0,eV,,,,,,,
Nd$_{2}$Re$_{2}$Si$_{2}$C,0,eV,,,,,,,
InAsPt$_{5}$,0.062399999999999345,eV,,,,,,,
InPPt$_{5}$,0.33580000000000076,eV,,,,,,,
SiPt$_{5}$Pb,0.0218999999999987,eV,,,,,,,
Ti$_{2}$VTe$_{4}$,0,eV,,,,,,,
SiAgPt$_{5}$,0.045900000000000496,eV,,,,,,,
Zn(NF$_{2}$)$_{2}$,1.7987,eV,,,,,,,
ZnPd$_{5}$Se,0.09930000000000039,eV,,,,,,,
Hf$_{4}$Al$_{3}$,0,eV,,,,,,,
V(CrS$_{2}$)$_{2}$,0,eV,,,,,,,
ErGa$_{5}$Co,0.1493000000000002,eV,,,,,,,
Rb$_{2}$MgCl$_{4}$,4.961200000000001,eV,,,,,,,
TiGa$_{5}$Co,0.06329999999999991,eV,,,,,,,
U$_{2}$Re$_{2}$C$_{3}$,0,eV,,,,,,,
Pr$_{2}$CrS$_{4}$,0,eV,,,,,,,
V$_{2}$CrSe$_{4}$,0,eV,,,,,,,
Fe(CoSe$_{2}$)$_{2}$,0,eV,,,,,,,
Sc(TiGa$_{2}$)$_{2}$,0.00509999999999966,eV,,,,,,,
Ba$_{2}$RuO$_{4}$,0,eV,,,,,,,
Tm(TiGa$_{2}$)$_{2}$,0.008799999999999919,eV,,,,,,,
Cr$_{2}$CoTe$_{4}$,0,eV,,,,,,,
Dy$_{2}$Re$_{2}$Si$_{2}$C,0,eV,,,,,,,
ScGa$_{5}$Fe,0.01980000000000004,eV,,,,,,,
ScGa$_{5}$Co,0.04630000000000045,eV,,,,,,,
La$_{2}$Re$_{2}$Si$_{2}$C,0,eV,,,,,,,
Er$_{2}$B$_{4}$C,0,eV,,,,,,,
TlPd$_{5}$Se,0.022200000000000664,eV,,,,,,,
Sm$_{2}$Re$_{2}$Si$_{2}$C,0,eV,,,,,,,
RhF$_{6}$,0.8929999999999998,eV,,,,,,,
Cs$_{2}$MnCl$_{4}$,1.7830000000000001,eV,,,,,,,
Tb(TiGa$_{2}$)$_{2}$,0.031299999999999883,eV,,,,,,,
TmGa$_{5}$Co,0.06879999999999953,eV,,,,,,,
ZnPPd$_{5}$,0.31539999999999946,eV,,,,,,,
MgPPd$_{5}$,0.3544999999999998,eV,,,,,,,
Sm$_{2}$Fe$_{2}$Si$_{2}$C,0,eV,,,,,,,
Ti$_{2}$NiS$_{4}$,0,eV,,,,,,,
U$_{2}$W$_{2}$C$_{3}$,0,eV,,,,,,,
Cs$_{2}$CuF$_{4}$,0.01419999999999999,eV,,,,,,,
Tb$_{2}$Cr$_{2}$C$_{3}$,0,eV,,,,,,,
Cs$_{2}$CaBr$_{4}$,4.4815000000000005,eV,,,,,,,
Pu$_{2}$W$_{2}$C$_{3}$,0,eV,,,,,,,
Ti$_{2}$CoS$_{4}$,0,eV,,,,,,,
GaPPt$_{5}$,0.021399999999999864,eV,,,,,,,
AlPPt$_{5}$,0.13020000000000032,eV,,,,,,,
ZnPPt$_{5}$,0.08230000000000004,eV,,,,,,,
Yb(CsH$_{2}$)$_{2}$,3.1881,eV,,,,,,,
Cs$_{2}$NpO$_{4}$,0.3134999999999999,eV,,,,,,,
Ce$_{2}$AlNO$_{3}$,0,eV,,,,,,,
Sm$_{2}$AlNO$_{3}$,1.8087999999999997,eV,,,,,,,
Pr$_{2}$AlNO$_{3}$,1.6148999999999996,eV,,,,,,,
V$_{2}$CrTe$_{4}$,0,eV,,,,,,,
Ti(CrSe$_{2}$)$_{2}$,0,eV,,,,,,,
Sr$_{2}$Cu(OF)$_{2}$,0.4352999999999998,eV,,,,,,,
Ti$_{2}$NiSe$_{4}$,0,eV,,,,,,,
Ti(VTe$_{2}$)$_{2}$,0,eV,,,,,,,
PrIn$_{5}$Rh,0.11789999999999967,eV,,,,,,,
Ce$_{2}$Re$_{2}$Si$_{2}$C,2.999999999993008E-4,eV,,,,,,,
Rb$_{2}$ZnF$_{4}$,4.7125,eV,,,,,,,
TbGa$_{5}$Co,0,eV,,,,,,,
Ce$_{2}$Fe$_{2}$Si$_{2}$C,0,eV,,,,,,,
La$_{2}$Fe$_{2}$Si$_{2}$C,0,eV,,,,,,,
Ti(NbSe$_{2}$)$_{2}$,0,eV,,,,,,,
InAsPd$_{5}$,0.11169999999999991,eV,,,,,,,
CdAsPd$_{5}$,0,eV,,,,,,,
SnPPd$_{5}$,0.029899999999999594,eV,,,,,,,
SmC$_{6}$,0,eV,,,,,,,
Tl$_{2}$CdTe$_{4}$,0.07629999999999981,eV,,,,,,,
GaPPd$_{5}$,0.1059000000000001,eV,,,,,,,
HgPPd$_{5}$,0.1814,eV,,,,,,,
Zr(TiGa$_{2}$)$_{2}$,0.10339999999999971,eV,,,,,,,
Nb$_{2}$CuS$_{4}$,0.061200000000000365,eV,,,,,,,
AlAsPt$_{5}$,0.11100000000000065,eV,,,,,,,
Pr(Re$_{2}$Si)$_{2}$,0,eV,,,,,,,
CdAsPt$_{5}$,0.18379999999999974,eV,,,,,,,
Mn(NbS$_{2}$)$_{2}$,0.027899999999999814,eV,,,,,,,
TiGa$_{5}$Ni,0.04210000000000047,eV,,,,,,,
Mn(AlS$_{2}$)$_{2}$,0,eV,,,,,,,
Mn(AlTe$_{2}$)$_{2}$,0.32449999999999957,eV,,,,,,,
Ho$_{2}$Fe$_{2}$Si$_{2}$C,0,eV,,,,,,,
Co(NiSe$_{2}$)$_{2}$,0.004300000000000637,eV,,,,,,,
Nd$_{2}$PdO$_{4}$,0,eV,,,,,,,
Ho$_{2}$Re$_{2}$Si$_{2}$C,0,eV,,,,,,,
Rb$_{2}$Cr(BrCl)$_{2}$,0.3579000000000001,eV,,,,,,,
V(CoSe$_{2}$)$_{2}$,0,eV,,,,,,,
Dy$_{2}$Cr$_{2}$C$_{3}$,0,eV,,,,,,,
SiSnPt$_{5}$,0.06380000000000052,eV,,,,,,,
NpGa$_{5}$Co,0.009600000000000719,eV,,,,,,,
Tb$_{2}$Mo$_{2}$C$_{3}$,0,eV,,,,,,,
TlSiPt$_{5}$,0.055899999999999395,eV,,,,,,,
In$_{2}$AgSe$_{4}$,0,eV,,,,,,,
AgWS$_{4}$N,0,eV,,,,,,,
Cs$_{2}$TmH$_{4}$,0,eV,,,,,,,
Lu(TiGa$_{2}$)$_{2}$,0.020299999999999763,eV,,,,,,,
Tl$_{2}$CdTe$_{4}$,0,eV,,,,,,,
Tl$_{2}$CuF$_{4}$,0.24829999999999997,eV,,,,,,,
Y$_{2}$Fe$_{2}$Si$_{2}$C,0,eV,,,,,,,
Cu$_{2}$WSe$_{4}$,1.2631000000000001,eV,,,,,,,
Si$_{2}$NiSe$_{4}$,0,eV,,,,,,,
Mn(NCl$_{2}$)$_{2}$,0,eV,,,,,,,
V(CrTe$_{2}$)$_{2}$,0.0030999999999998806,eV,,,,,,,
Ti$_{2}$CrTe$_{4}$,0,eV,,,,,,,
GaAsPd$_{5}$,0.04239999999999977,eV,,,,,,,
Ti$_{2}$CoSe$_{4}$,0,eV,,,,,,,
TlPPd$_{5}$,0.05510000000000037,eV,,,,,,,
Sr$_{2}$ZrO$_{4}$,3.4081,eV,,,,,,,
Nb$_{2}$CoS$_{4}$,0.10679999999999978,eV,,,,,,,
Sr$_{4}$Bi$_{2}$O,1.4893999999999994,eV,,,,,,,
Ce$_{2}$C(NO)$_{2}$,0.0049000000000001265,eV,,,,,,,
TlAsPt$_{5}$,0.25340000000000007,eV,,,,,,,
Er$_{2}$Fe$_{2}$Si$_{2}$C,0,eV,,,,,,,
ZrGa$_{5}$Co,0.0530999999999997,eV,,,,,,,
ZnAsPt$_{5}$,0.06899999999999995,eV,,,,,,,
Lu$_{2}$Fe$_{2}$Si$_{2}$C,0,eV,,,,,,,
Er(Al$_{2}$Mo)$_{2}$,0,eV,,,,,,,
Fe(NiSe$_{2}$)$_{2}$,0,eV,,,,,,,
Na$_{2}$Ti$_{2}$As$_{2}$O,0,eV,,,,,,,
Gd$_{2}$Re$_{2}$Si$_{2}$C,0,eV,,,,,,,
Er$_{2}$Re$_{2}$Si$_{2}$C,0,eV,,,,,,,
Dy$_{2}$Mo$_{2}$C$_{3}$,0,eV,,,,,,,
Dy(TiGa$_{2}$)$_{2}$,0,eV,,,,,,,
Sc(VGa$_{2}$)$_{2}$,0,eV,,,,,,,
SiSbPt$_{5}$,0.06460000000000043,eV,,,,,,,
Ti$_{2}$VS$_{4}$,0,eV,,,,,,,
Tm$_{2}$Mo$_{2}$C$_{3}$,0,eV,,,,,,,
InSiPt$_{5}$,0.08729999999999993,eV,,,,,,,
CdPd$_{5}$Se,0.12379999999999924,eV,,,,,,,
Y$_{2}$Cr$_{2}$C$_{3}$,0,eV,,,,,,,
TcF$_{6}$,0,eV,,,,,,,
ReF$_{6}$,0,eV,,,,,,,
YGa$_{5}$Co,0.11309999999999931,eV,,,,,,,
Cd(AgI$_{2}$)$_{2}$,1.7687,eV,,,,,,,
V$_{2}$FeTe$_{4}$,0.002500000000000391,eV,,,,,,,
Tb$_{2}$B$_{4}$C,0.038599999999999746,eV,,,,,,,
Cr$_{2}$FeTe$_{4}$,3.9999999999995595E-4,eV,,,,,,,
Th$_{2}$Fe$_{2}$Si$_{2}$C,8.999999999996788E-4,eV,,,,,,,
TlPPt$_{5}$,0.2746000000000013,eV,,,,,,,
Pr$_{2}$Re$_{2}$Si$_{2}$C,0,eV,,,,,,,
AgPPt$_{5}$,0.10269999999999957,eV,,,,,,,
HgPPt$_{5}$,0.12739999999999974,eV,,,,,,,
TbO$_{3}$,0.18839999999999996,eV,,,,,,,
YbCl$_{3}$,5.999999999999998E-4,eV,,,,,,,
LuAl$_{2}$Ni,0,eV,,,,,,,
LaSi$_{2}$Ag,0,eV,,,,,,,
TmSi$_{2}$Ni,0,eV,,,,,,,
HoTe$_{3}$,0,eV,,,,,,,
NbTl$_{3}$Se$_{4}$,2.2017,eV,,,,,,,
GeRu,0.0686,eV,,,,,,,
LaAu,0.007499999999999396,eV,,,,,,,
Sr$_{2}$IrO$_{4}$,0.0,eV,,,,,,,
YbCl$_{3}$,0,eV,,,,,,,
SrCu,0,eV,,,,,,,
Ce$_{3}$Pd$_{5}$,0,eV,,,,,,,
LiP$_{3}$,0,eV,,,,,,,
TmCoSi$_{2}$,0,eV,,,,,,,
TmPt,0.011099999999999888,eV,,,,,,,
LuU$_{2}$S$_{3}$O$_{2}$,0,eV,,,,,,,
CeSi$_{2}$Rh,0,eV,,,,,,,
ThSi$_{2}$Ni,0.0036000000000004917,eV,,,,,,,
CePd$_{7}$,0.029600000000000293,eV,,,,,,,
LaTe$_{3}$,0.01670000000000016,eV,,,,,,,
SmSi$_{2}$Ni,0.006899999999999906,eV,,,,,,,
SmO$_{3}$,0.17679999999999996,eV,,,,,,,
HoGe$_{3}$,0,eV,,,,,,,
SmGa$_{2}$Ni,0.006599999999999717,eV,,,,,,,
TmMnSi$_{2}$,0,eV,,,,,,,
Co$_{3}$H,0,eV,,,,,,,
CeI$_{3}$,0.023299999999999876,eV,,,,,,,
Ta$_{2}$GaC,0,eV,,,,,,,
SmPt,0.011199999999999655,eV,,,,,,,
HoGa$_{2}$Ni,0.06349999999999945,eV,,,,,,,
YU$_{2}$S$_{3}$O$_{2}$,0,eV,,,,,,,
CeBi$_{2}$SeO$_{4}$,0.7007000000000003,eV,,,,,,,
LuPt,0.022299999999999542,eV,,,,,,,
CsCuC$_{2}$,2.0451,eV,,,,,,,
CuGe$_{3}$,0,eV,,,,,,,
Ta$_{2}$AlC,0,eV,,,,,,,
IrI$_{3}$,1.2786999999999997,eV,,,,,,,
ThCd$_{3}$,0,eV,,,,,,,
ErPt,0.03589999999999982,eV,,,,,,,
CeAl$_{2}$Pd$_{5}$,0,eV,,,,,,,
CeGa$_{2}$Ni,0,eV,,,,,,,
TlCu$_{4}$Se$_{3}$,0.09639999999999915,eV,,,,,,,
YPt,0.0055000000000005045,eV,,,,,,,
TbInPt$_{2}$,0,eV,,,,,,,
CeFeSi$_{2}$,0,eV,,,,,,,
HfNi$_{2}$Sb,0,eV,,,,,,,
SmSi$_{2}$Rh,0.010400000000000631,eV,,,,,,,
LiNb$_{2}$O,0,eV,,,,,,,
CaZrF$_{6}$,6.672700000000001,eV,,,,,,,
HfAl$_{5}$Ni$_{2}$,0.016899999999999693,eV,,,,,,,
SmAl$_{2}$Ni,0.04440000000000044,eV,,,,,,,
HfTe$_{3}$,0,eV,,,,,,,
MgZrF$_{6}$,6.5421,eV,,,,,,,
PrBrO$_{2}$,3.1971999999999996,eV,,,,,,,
Sc$_{3}$NiC$_{4}$,0,eV,,,,,,,
Cu$_{2}$SnHgS$_{4}$,0.012599999999999945,eV,,,,,,,
CeAu,0.001100000000000101,eV,,,,,,,
LuTe$_{3}$,0,eV,,,,,,,
NpTe$_{3}$,0,eV,,,,,,,
Li$_{2}$NdGe,0.00649999999999995,eV,,,,,,,
TbAu$_{3}$,0.05430000000000046,eV,,,,,,,
DyTe$_{3}$,0.04319999999999968,eV,,,,,,,
ErO$_{3}$,0.272,eV,,,,,,,
LaZn$_{2}$Co,0,eV,,,,,,,
SmSi,0.012399999999999523,eV,,,,,,,
TmU$_{2}$S$_{3}$O$_{2}$,0,eV,,,,,,,
TbGe$_{3}$,0,eV,,,,,,,
HoClO$_{2}$,0.11850000000000005,eV,,,,,,,
EuClO$_{2}$,0,eV,,,,,,,
NdSi$_{2}$Rh,0,eV,,,,,,,
LiNbSe$_{2}$,0.7295999999999996,eV,,,,,,,
AlV$_{2}$C,0,eV,,,,,,,
Tb$_{2}$CBr,0,eV,,,,,,,
Nb$_{3}$B$_{4}$,0.0032000000000005357,eV,,,,,,,
ZnCu$_{2}$SnS$_{4}$,0.0,eV,,,,,,,
TiCuF$_{6}$,0.10159999999999991,eV,,,,,,,
Cr$_{3}$Co,0,eV,,,,,,,
TmGa$_{2}$Ni,0.06730000000000036,eV,,,,,,,
ErGa$_{2}$Ni,0.058900000000000396,eV,,,,,,,
ZrZnF$_{6}$,6.129,eV,,,,,,,
FeSi(CuSe$_{2}$)$_{2}$,0,eV,,,,,,,
NdBrO$_{2}$,3.2020999999999997,eV,,,,,,,
ZrGe,0.11790000000000056,eV,,,,,,,
Ti$_{2}$InN,0,eV,,,,,,,
RbCu$_{4}$S$_{3}$,0.07000000000000028,eV,,,,,,,
BaIn$_{2}$Pd,0.00649999999999995,eV,,,,,,,
CeSi$_{2}$Ru,0,eV,,,,,,,
ThTe$_{3}$,0.7904,eV,,,,,,,
CeFeSi$_{2}$,8.999999999996788E-4,eV,,,,,,,
Zr$_{2}$TlC,0,eV,,,,,,,
DyInPt$_{2}$,0,eV,,,,,,,
LuAu$_{3}$,0.04870000000000019,eV,,,,,,,
LaAs$_{2}$Au,0,eV,,,,,,,
MnCu$_{2}$SnTe$_{4}$,0,eV,,,,,,,
PrGa$_{2}$Ni,0.006099999999999994,eV,,,,,,,
TmTe$_{3}$,0,eV,,,,,,,
MnSi(CuTe$_{2}$)$_{2}$,0,eV,,,,,,,
EuBrO$_{2}$,0,eV,,,,,,,
Tl$_{3}$VSe$_{4}$,1.6016000000000001,eV,,,,,,,
Ti$_{2}$GaN,0,eV,,,,,,,
GaPt,0.14039999999999964,eV,,,,,,,
LuGa$_{2}$Ni,0.06130000000000013,eV,,,,,,,
EuSi$_{2}$Ni,0.0129999999999999,eV,,,,,,,
PrSi$_{2}$Ag,0,eV,,,,,,,
CoMoP$_{2}$,0,eV,,,,,,,
CeNiSn$_{2}$,0,eV,,,,,,,
TbFeSi$_{2}$,0,eV,,,,,,,
Ce$_{2}$(CuGe)$_{3}$,0.002100000000000435,eV,,,,,,,
LuAl$_{2}$Pd$_{5}$,0,eV,,,,,,,
HoO$_{3}$,0.2424,eV,,,,,,,
NbCl$_{2}$O,0.9081000000000001,eV,,,,,,,
MnAg$_{2}$GeTe$_{4}$,0,eV,,,,,,,
WS$_{2}$,1.7071,eV,,,,,,,
WSe$_{2}$,1.2288999999999999,eV,,,,,,,
Te$_{2}$W,0.6644000000000001,eV,,,,,,,
Te$_{2}$Mo(WSe$_{2}$)$_{2}$,0.17189999999999994,eV,,,,,,,
Mo(WSe$_{3}$)$_{2}$,1.0142999999999998,eV,,,,,,,
Te$_{2}$Mo,0.6230000000000002,eV,,,,,,,
W$_{3}$(SeS$_{2}$)$_{2}$,0.7054,eV,,,,,,,
Te$_{2}$W$_{3}$(SeS)$_{2}$,0.0,eV,,,,,,,
Te$_{2}$Mo(WSe$_{2}$)$_{2}$,0.0,eV,,,,,,,
W$_{3}$(SeS$_{2}$)$_{2}$,0.7679,eV,,,,,,,
Te$_{4}$Mo(WSe)$_{2}$,0.0524,eV,,,,,,,
Te$_{2}$W$_{3}$S$_{4}$,0.0,eV,,,,,,,
Te$_{4}$W$_{3}$S$_{2}$,0.0,eV,,,,,,,
W$_{3}$(Se$_{2}$S)$_{2}$,0.8828999999999998,eV,,,,,,,
MoW$_{2}$(Se$_{2}$S)$_{2}$,0.6747000000000001,eV,,,,,,,
Te$_{4}$Mo(WSe)$_{2}$,0.3238000000000003,eV,,,,,,,
W$_{3}$(Se$_{2}$S)$_{2}$,0.9081999999999999,eV,,,,,,,
VTe,0.0,eV,,,,,,,
Te$_{4}$Mo$_{2}$WSe$_{2}$,0.05750000000000011,eV,,,,,,,
Te$_{6}$Mo$_{2}$W,0.5741,eV,,,,,,,
Te$_{2}$Mo(WS$_{2}$)$_{2}$,0.0,eV,,,,,,,
Te$_{6}$Mo$_{2}$W,0.6132,eV,,,,,,,
Te$_{2}$MoW$_{2}$(SeS)$_{2}$,0.30230000000000024,eV,,,,,,,
Te$_{4}$Mo$_{2}$WS$_{2}$,0.0,eV,,,,,,,
MoW$_{2}$(Se$_{2}$S)$_{2}$,0.8603000000000001,eV,,,,,,,
MoW$_{2}$(SeS$_{2}$)$_{2}$,0.7688000000000001,eV,,,,,,,
Te$_{4}$Mo$_{2}$WSe$_{2}$,0.35189999999999966,eV,,,,,,,
Te$_{2}$Mo$_{2}$WSe$_{4}$,0.0,eV,,,,,,,
Te$_{4}$Mo$_{2}$WSe$_{2}$,0.39860000000000007,eV,,,,,,,
Te$_{6}$MoW$_{2}$,0.6236000000000002,eV,,,,,,,
Te$_{4}$Mo(WSe)$_{2}$,0.3641000000000001,eV,,,,,,,
Te$_{4}$Mo$_{3}$Se$_{2}$,0.18710000000000004,eV,,,,,,,
Mo(WS$_{3}$)$_{2}$,1.2904999999999998,eV,,,,,,,
Te$_{4}$Mo(WS)$_{2}$,0.0,eV,,,,,,,
Te$_{2}$MoW$_{2}$(SeS)$_{2}$,0.0,eV,,,,,,,
Te$_{2}$Mo(WSe$_{2}$)$_{2}$,0.12340000000000018,eV,,,,,,,
Te$_{2}$Mo(WSe$_{2}$)$_{2}$,0.04820000000000002,eV,,,,,,,
MoW$_{2}$(SeS$_{2}$)$_{2}$,0.5537000000000001,eV,,,,,,,
Te$_{2}$Mo$_{3}$Se$_{4}$,0.0,eV,,,,,,,
Te$_{4}$Mo(WSe)$_{2}$,0.017100000000000115,eV,,,,,,,
Te$_{2}$Mo$_{2}$W(SeS)$_{2}$,0.0,eV,,,,,,,
Te$_{4}$Mo(WSe)$_{2}$,0.34189999999999987,eV,,,,,,,
Te$_{4}$Mo$_{3}$Se$_{2}$,0.43409999999999993,eV,,,,,,,
MoW$_{2}$(Se$_{2}$S)$_{2}$,0.8536999999999999,eV,,,,,,,
Te$_{4}$Mo$_{2}$WS$_{2}$,0.008099999999999774,eV,,,,,,,
Mo$_{2}$W(Se$_{2}$S)$_{2}$,0.9139000000000004,eV,,,,,,,
Te$_{4}$Mo$_{2}$WSe$_{2}$,0.04620000000000024,eV,,,,,,,
Te$_{2}$Mo$_{2}$WSe$_{4}$,0.01670000000000016,eV,,,,,,,
Te$_{4}$Mo$_{3}$S$_{2}$,0.0,eV,,,,,,,
Te$_{2}$Mo$_{2}$WSe$_{4}$,0.018299999999999983,eV,,,,,,,
Te$_{2}$Mo$_{2}$WSe$_{4}$,0.005700000000000038,eV,,,,,,,
Te$_{4}$Mo$_{2}$WSe$_{2}$,0.05810000000000004,eV,,,,,,,
Mo(WSe$_{3}$)$_{2}$,1.0526000000000002,eV,,,,,,,
MoSe$_{2}$,1.1603,eV,,,,,,,
Te$_{2}$Mo(WS$_{2}$)$_{2}$,0.22219999999999995,eV,,,,,,,
Mo$_{2}$WSe$_{6}$,1.0366999999999997,eV,,,,,,,
MoW$_{2}$(Se$_{2}$S)$_{2}$,0.9087999999999998,eV,,,,,,,
Mo$_{3}$(Se$_{2}$S)$_{2}$,0.7406999999999999,eV,,,,,,,
MoW$_{2}$(SeS$_{2}$)$_{2}$,0.7531999999999996,eV,,,,,,,
Te$_{2}$Mo(WSe$_{2}$)$_{2}$,0.020199999999999996,eV,,,,,,,
Te$_{2}$MoW$_{2}$(SeS)$_{2}$,0.41270000000000007,eV,,,,,,,
Te$_{2}$Mo$_{2}$WS$_{4}$,0.07819999999999983,eV,,,,,,,
Mo$_{2}$W(Se$_{2}$S)$_{2}$,0.6720000000000002,eV,,,,,,,
Te$_{2}$Mo$_{3}$(SeS)$_{2}$,0.0,eV,,,,,,,
Mo$_{2}$W(Se$_{2}$S)$_{2}$,0.7303000000000002,eV,,,,,,,
MoW$_{2}$(Se$_{2}$S)$_{2}$,0.7048000000000001,eV,,,,,,,
MoS$_{2}$,1.4985,eV,,,,,,,
Mo$_{2}$W(Se$_{2}$S)$_{2}$,0.8946000000000001,eV,,,,,,,
Te$_{2}$Mo$_{2}$W(SeS)$_{2}$,0.0253000000000001,eV,,,,,,,
Te$_{2}$MoW$_{2}$(SeS)$_{2}$,0.2852000000000001,eV,,,,,,,
Te$_{4}$Mo$_{2}$WS$_{2}$,0.2168000000000001,eV,,,,,,,
Mo$_{2}$W(SeS$_{2}$)$_{2}$,0.5867,eV,,,,,,,
Zr(NiP)$_{2}$,0.0,eV,,,,,,,
Mo$_{2}$WSe$_{6}$,0.9875000000000003,eV,,,,,,,
Mo$_{3}$(Se$_{2}$S)$_{2}$,0.7662,eV,,,,,,,
Te$_{4}$Mo$_{2}$WS$_{2}$,0.18690000000000007,eV,,,,,,,
Mo$_{2}$WS$_{6}$,1.2926000000000002,eV,,,,,,,
MoW$_{2}$(SeS$_{2}$)$_{2}$,0.6113000000000004,eV,,,,,,,
MoW$_{2}$(SeS$_{2}$)$_{2}$,0.6116999999999999,eV,,,,,,,
Mo$_{2}$WS$_{6}$,1.2626,eV,,,,,,,
Te$_{2}$Mo$_{2}$WS$_{4}$,0.0,eV,,,,,,,
Mo$_{3}$(SeS$_{2}$)$_{2}$,0.6036999999999999,eV,,,,,,,
Te$_{2}$Mo$_{2}$W(SeS)$_{2}$,0.2633000000000001,eV,,,,,,,
Mo$_{2}$W(SeS$_{2}$)$_{2}$,0.5194999999999999,eV,,,,,,,
Te$_{4}$Mo$_{3}$S$_{2}$,0.1554000000000002,eV,,,,,,,
Mo$_{2}$W(SeS$_{2}$)$_{2}$,0.6491000000000002,eV,,,,,,,
Mo$_{2}$W(Se$_{2}$S)$_{2}$,0.7075,eV,,,,,,,
Mo$_{2}$W(SeS$_{2}$)$_{2}$,0.6349999999999998,eV,,,,,,,
Te$_{2}$Mo$_{2}$W(SeS)$_{2}$,0.3221000000000003,eV,,,,,,,
Te$_{2}$Mo$_{3}$S$_{4}$,0.0,eV,,,,,,,
Mo$_{3}$(SeS$_{2}$)$_{2}$,0.5613000000000001,eV,,,,,,,
Ni$_{3}$Sb,0.0,eV,,,,,,,
Te$_{2}$Mo$_{2}$WS$_{4}$,0.07010000000000005,eV,,,,,,,
Mo$_{2}$W(SeS$_{2}$)$_{2}$,0.6362999999999999,eV,,,,,,,
Te$_{2}$Mo$_{2}$W(SeS)$_{2}$,0.38019999999999987,eV,,,,,,,
Mo(WS$_{3}$)$_{2}$,1.3041000000000003,eV,,,,,,,
TiNi$_{2}$Sb,0.0,eV,,,,,,,
Te$_{2}$W$_{3}$Se$_{4}$,0.1471,eV,,,,,,,
Te$_{2}$W$_{3}$Se$_{4}$,0.23000000000000043,eV,,,,,,,
Te$_{4}$W$_{3}$Se$_{2}$,0.3434999999999997,eV,,,,,,,
Te$_{6}$MoW$_{2}$,0.5968999999999998,eV,,,,,,,
Te$_{4}$W$_{3}$Se$_{2}$,0.3689,eV,,,,,,,
NiTe,0.0,eV,,,,,,,
ZnFe$_{3}$C,0.0,eV,,,,,,,
Mo$_{3}$W(SeS)$_{4}$,0.552,eV,,,,,,,
MoW(SeS)$_{2}$,0.6052999999999997,eV,,,,,,,
MoW(SeS)$_{2}$,0.5913000000000004,eV,,,,,,,
Te$_{2}$MoWSeS,0.23860000000000037,eV,,,,,,,
MoSeS,0.6076999999999999,eV,,,,,,,
Te$_{2}$Mo$_{3}$W(SeS$_{2}$)$_{2}$,0.0,eV,,,,,,,
Mo$_{3}$W(SeS)$_{4}$,0.6504999999999996,eV,,,,,,,
Te$_{4}$MoW$_{3}$(SeS)$_{2}$,0.0,eV,,,,,,,
Te$_{2}$MoW$_{3}$(SeS$_{2}$)$_{2}$,0.0,eV,,,,,,,
Te$_{2}$Mo$_{3}$W(Se$_{2}$S)$_{2}$,0.0,eV,,,,,,,
TeMo$_{2}$SeS$_{2}$,0.0,eV,,,,,,,
Mo$_{3}$W(SeS$_{3}$)$_{2}$,0.4879000000000002,eV,,,,,,,
TeMoWSe$_{2}$S,0.0,eV,,,,,,,
TeMo$_{2}$Se$_{2}$S,0.0,eV,,,,,,,
Te$_{4}$Mo$_{3}$W(SeS)$_{2}$,0.04579999999999984,eV,,,,,,,
MoWSe$_{3}$S,0.6717,eV,,,,,,,
MoWSeS$_{3}$,0.5367999999999999,eV,,,,,,,
Te$_{4}$MoW$_{3}$S$_{4}$,0.0,eV,,,,,,,
TeMo$_{2}$Se$_{2}$S,0,eV,,,,,,,
Mo$_{2}$Se$_{3}$S,0.7385999999999999,eV,,,,,,,
Te$_{3}$MoWS,0.012099999999999778,eV,,,,,,,
Te$_{2}$Mo$_{2}$SeS,0.10150000000000015,eV,,,,,,,
TeMoWSeS$_{2}$,0.0,eV,,,,,,,
HfRh$_{3}$,0.0,eV,,,,,,,
ScCo$_{3}$C,0.0,eV,,,,,,,
Te$_{2}$MoW$_{3}$(Se$_{2}$S)$_{2}$,0.0,eV,,,,,,,
Te$_{2}$MoWSeS,0.01890000000000036,eV,,,,,,,
Te$_{3}$MoWS,0.0,eV,,,,,,,
Te$_{6}$MoW$_{3}$S$_{2}$,0.0,eV,,,,,,,
Mo$_{3}$W(SeS)$_{4}$,0.6638999999999999,eV,,,,,,,
Te$_{4}$Mo$_{3}$W(SeS)$_{2}$,0.13419999999999987,eV,,,,,,,
Te$_{2}$Mo(WS$_{2}$)$_{3}$,0.0,eV,,,,,,,
Te$_{2}$MoWSeS,0.1559999999999997,eV,,,,,,,
Te$_{2}$MoWSeS,0.10809999999999986,eV,,,,,,,
TeMoWS$_{3}$,0.0,eV,,,,,,,
Te$_{4}$Mo$_{3}$W(SeS)$_{2}$,0.0032999999999998586,eV,,,,,,,
MoW(SeS)$_{2}$,0.6276999999999999,eV,,,,,,,
MoW$_{3}$(Se$_{3}$S)$_{2}$,0.7005999999999997,eV,,,,,,,
ZnCo$_{3}$C,0.0,eV,,,,,,,
Mo$_{3}$W(Se$_{3}$S)$_{2}$,0.7018,eV,,,,,,,
Te$_{2}$MoWS$_{2}$,0,eV,,,,,,,
MoW$_{3}$(SeS)$_{4}$,0.6724000000000001,eV,,,,,,,
MoW$_{3}$(SeS$_{3}$)$_{2}$,0.5772000000000004,eV,,,,,,,
MoW(SeS)$_{2}$,0.6654,eV,,,,,,,
Mo$_{3}$W(SeS)$_{4}$,0.6067999999999998,eV,,,,,,,
Te$_{4}$Mo$_{3}$WS$_{4}$,0.0,eV,,,,,,,
Te$_{4}$Mo$_{3}$W(SeS)$_{2}$,0.16000000000000014,eV,,,,,,,
MoWSe$_{3}$S,0.7308000000000003,eV,,,,,,,
MoW$_{3}$(SeS)$_{4}$,0.6412999999999998,eV,,,,,,,
MoWSe$_{3}$S,0.7408000000000001,eV,,,,,,,
MoWSeS$_{3}$,0.5151000000000003,eV,,,,,,,
Mo$_{3}$W(Se$_{3}$S)$_{2}$,0.7651000000000003,eV,,,,,,,
MoW(SeS)$_{2}$,0.6580000000000004,eV,,,,,,,
MoW(SeS)$_{2}$,0.6591,eV,,,,,,,
Te$_{6}$Mo$_{3}$WS$_{2}$,0.03149999999999986,eV,,,,,,,
MoW(SeS)$_{2}$,0.6122999999999998,eV,,,,,,,
Te$_{4}$Mo$_{3}$W(SeS)$_{2}$,0.2366999999999999,eV,,,,,,,
Te$_{4}$MoW$_{3}$S$_{4}$,0.030200000000000227,eV,,,,,,,
Te$_{2}$MoWSeS,0.19500000000000028,eV,,,,,,,
Te$_{4}$MoW$_{3}$(SeS)$_{2}$,0.18030000000000035,eV,,,,,,,
Mo$_{3}$W(SeS)$_{4}$,0.7035999999999998,eV,,,,,,,
MoWS$_{4}$,1.245,eV,,,,,,,
MoW$_{3}$S$_{8}$,1.2576,eV,,,,,,,
MoWSeS$_{3}$,0.5998999999999999,eV,,,,,,,
MoWSeS$_{3}$,0.4950000000000001,eV,,,,,,,
MoWSeS$_{3}$,0.6067,eV,,,,,,,
MoWSeS$_{3}$,0.5724,eV,,,,,,,
Mo$_{3}$W(SeS$_{3}$)$_{2}$,0.5340000000000003,eV,,,,,,,
Te$_{2}$Mo$_{3}$WS$_{6}$,0.0,eV,,,,,,,
Te$_{4}$Mo$_{3}$W(SeS)$_{2}$,0.0,eV,,,,,,,
Te$_{2}$MoWSeS,0.11509999999999998,eV,,,,,,,
MoW$_{3}$(SeS$_{3}$)$_{2}$,0.5672999999999999,eV,,,,,,,
Te$_{4}$Mo$_{3}$W(SeS)$_{2}$,0.26639999999999997,eV,,,,,,,
MoWS$_{4}$,1.2209000000000003,eV,,,,,,,
Te$_{2}$Mo$_{2}$SeS,0.13559999999999972,eV,,,,,,,
TeMoWSe$_{2}$S,0.10840000000000005,eV,,,,,,,
Te$_{4}$Mo$_{3}$W(SeS)$_{2}$,0.19159999999999977,eV,,,,,,,
TeMoS,0.28679999999999994,eV,,,,,,,
Te$_{2}$MoWSeS,0.0,eV,,,,,,,
MoW(SeS)$_{2}$,0.6365000000000003,eV,,,,,,,
TeMoWSeS$_{2}$,0.5877000000000003,eV,,,,,,,
MoWSeS$_{3}$,0.5973999999999999,eV,,,,,,,
Er$_{3}$GaC,0.0,eV,,,,,,,
Mo$_{3}$W(Se$_{3}$S)$_{2}$,0.734,eV,,,,,,,
Te$_{6}$Mo$_{3}$WS$_{2}$,0.06469999999999976,eV,,,,,,,
Mo$_{3}$W(SeS)$_{4}$,0.6364999999999998,eV,,,,,,,
Te$_{2}$Mo$_{2}$SeS,0.0,eV,,,,,,,
MoW(SeS)$_{2}$,0.6385999999999998,eV,,,,,,,
Mo$_{3}$W(SeS$_{3}$)$_{2}$,0.5839999999999996,eV,,,,,,,
Mo$_{3}$W(SeS)$_{4}$,0.5864999999999996,eV,,,,,,,
MoWSe$_{3}$S,0.7044000000000001,eV,,,,,,,
Mo$_{2}$Se$_{3}$S,0.7892999999999999,eV,,,,,,,
Te$_{2}$MoWS$_{2}$,0.16610000000000014,eV,,,,,,,
MoSeS,0.6666000000000003,eV,,,,,,,
Er$_{3}$InC,0.0,eV,,,,,,,
MoW(SeS)$_{2}$,0.5579999999999998,eV,,,,,,,
Te$_{2}$MoWSeS,0.014800000000000146,eV,,,,,,,
Mo$_{3}$W(SeS)$_{4}$,0.7110000000000003,eV,,,,,,,
MoS$_{2}$,1.4639999999999997,eV,,,,,,,
TeMoWSe$_{2}$S,0.5397000000000003,eV,,,,,,,
Mo$_{3}$W(SeS$_{3}$)$_{2}$,0.5347000000000004,eV,,,,,,,
Mo$_{3}$W(Se$_{3}$S)$_{2}$,0.7342,eV,,,,,,,
Mo$_{3}$W(SeS)$_{4}$,0.6898,eV,,,,,,,
Mo$_{3}$WS$_{8}$,1.2054,eV,,,,,,,
MoSeS,0.6547000000000001,eV,,,,,,,
Te$_{2}$Mo$_{2}$SeS,0.22870000000000035,eV,,,,,,,
MoWSeS$_{3}$,0.4758,eV,,,,,,,
Mo$_{3}$W(SeS$_{3}$)$_{2}$,0.4687000000000001,eV,,,,,,,
Te$_{2}$Mo$_{3}$W(SeS$_{2}$)$_{2}$,0.12740000000000018,eV,,,,,,,
Mo$_{2}$SeS$_{3}$,0.5037000000000003,eV,,,,,,,
MoWSeS$_{3}$,0.4704999999999999,eV,,,,,,,
Mo$_{3}$W(SeS$_{3}$)$_{2}$,0.42410000000000014,eV,,,,,,,
Te$_{3}$Mo$_{2}$S,0.0,eV,,,,,,,
Mo$_{3}$WS$_{8}$,1.1872000000000003,eV,,,,,,,
Mo$_{3}$W(SeS$_{3}$)$_{2}$,0.5276000000000001,eV,,,,,,,
MoWS$_{4}$,1.2003,eV,,,,,,,