formula,Property Band Gap,Property Band Gap units,Property Band gap,Property Band gap units,Temperature (Property Band gap),Temperature (Property Band gap) units,Property Color,Temperature (Property Color),Temperature (Property Color) units
Hf,0.0,eV,,,,,,,
BaTe,1.593,eV,,,,,,,
Hf$_{2}$S,0.0,eV,,,,,,,
Nb$_{4}$CoSi,0.0,eV,,,,,,,
Mo$_{3}$P,0.0,eV,,,,,,,
TlAgTe$_{2}$,0.0,eV,,,,,,,
Ca$_{7}$Ge,0.0,eV,,,,,,,
GaTe,0.7804000000000002,eV,,,,,,,
BaN$_{2}$,0.0,eV,,,,,,,
Al(CoSi)$_{2}$,0.0,eV,,,,,,,
TaO$_{3}$,0.0,eV,,,,,,,
Sc$_{2}$ZnS$_{4}$,0.5765000000000002,eV,,,,,,,
Y$_{2}$ZnS$_{4}$,0.6698,eV,,,,,,,
Sc$_{2}$ZnSe$_{4}$,0.13960000000000017,eV,,,,,,,
Zn(InSe$_{2}$)$_{2}$,0.03180000000000005,eV,,,,,,,
Mg(ScSe$_{2}$)$_{2}$,1.0918,eV,,,,,,,
Y$_{2}$ZnSe$_{4}$,0.23950000000000005,eV,,,,,,,
Cu$_{2}$PPd$_{2}$,0.0,eV,,,,,,,
BeC$_{2}$,1.6671,eV,,,,,,,
Y$_{2}$MgS$_{4}$,1.7768000000000002,eV,,,,,,,
Mg(InSe$_{2}$)$_{2}$,0.7431999999999999,eV,,,,,,,
Li$_{48}$P$_{16}$S$_{61}$,2.2970999999999995,eV,,,,,,,
Li(CN)$_{2}$,1.8775,eV,,,,,,,
H$_{2}$CO$_{3}$,5.8870000000000005,eV,,,,,,,
Si(CO)$_{2}$,0.0,eV,,,,,,,
Na$_{2}$H$_{3}$CO$_{6}$,3.7708,eV,,,,,,,
Si,0.0,eV,,,,,,,
Mn$_{3}$N$_{2}$,0.0,eV,,,,,,,
SnS,0.1656000000000004,eV,,,,,,,
TaS$_{2}$,0.0,eV,,,,,,,
SiOs,0.0,eV,,,,,,,
H$_{2}$,9.3264,eV,,,,,,,
CaFeO$_{3}$,0.0,eV,,,,,,,
LiC$_{6}$,0.0,eV,,,,,,,
C$_{4}$O$_{3}$,2.4645,eV,,,,,,,
HfB$_{12}$,0.0,eV,,,,,,,
B$_{12}$W,0.0,eV,,,,,,,
LuNiC$_{2}$,0,eV,,,,,,,
LuTlS$_{2}$,1.4775,eV,,,,,,,
PrBi,0.0,eV,,,,,,,
LuFeC$_{2}$,0,eV,,,,,,,
LuTlSe$_{2}$,1.2677999999999998,eV,,,,,,,
LuSi,0.0,eV,,,,,,,
LuGa,0.0,eV,,,,,,,
LuCoC$_{2}$,0,eV,,,,,,,
LiZrSe$_{2}$,0.0,eV,,,,,,,
LuCuS$_{2}$,1.4580000000000002,eV,,,,,,,
LiSnS$_{2}$,0,eV,,,,,,,
LiTiS$_{2}$,0,eV,,,,,,,
MoP,0.0,eV,,,,,,,
LiScS$_{2}$,1.5776000000000003,eV,,,,,,,
LiRh$_{3}$,0.0,eV,,,,,,,
ZrB$_{6}$,0.0,eV,,,,,,,
IrC,0.0,eV,,,,,,,
LiO$_{3}$,0.07219999999999993,eV,,,,,,,
KCoCl$_{3}$,0.024599999999999955,eV,,,,,,,
Ac,0.0,eV,,,,,,,
LiBe,0.0,eV,,,,,,,
VN,0.0,eV,,,,,,,
WN,0.0,eV,,,,,,,
LiB,1.4348999999999998,eV,,,,,,,
InBi,0.0,eV,,,,,,,
HfN,0.0,eV,,,,,,,
LiB,0.0,eV,,,,,,,
MnGa,0.0,eV,,,,,,,
HoP,0.0,eV,,,,,,,
HoN,0.0,eV,,,,,,,
HoBi,0.034900000000000375,eV,,,,,,,
Li$_{2}$SnIr,0.0,eV,,,,,,,
HfN,0.09549999999999947,eV,,,,,,,
HoAs,0.21340000000000003,eV,,,,,,,
HfC,0.0,eV,,,,,,,
LaC,0,eV,,,,,,,
ScC,0.0,eV,,,,,,,
SnS$_{2}$,1.865,eV,,,,,,,
NaLiICl,4.1874,eV,,,,,,,
CsLiICl,3.3604000000000003,eV,,,,,,,
KNaICl,4.0086,eV,,,,,,,
CsKICl,4.0989,eV,,,,,,,
Ga,0.0,eV,,,,,,,
LaPt,0.0,eV,,,,,,,
HfPd,0.0,eV,,,,,,,
LaRh,0.0,eV,,,,,,,
VCo,0.0,eV,,,,,,,
VH,0.0,eV,,,,,,,
LaPd,0.0,eV,,,,,,,
TcN,0.0,eV,,,,,,,
HfIr,0.0,eV,,,,,,,
KZrS$_{2}$,0.021599999999999397,eV,,,,,,,
HfC,0.2961999999999998,eV,,,,,,,
LaGa,0.0,eV,,,,,,,
LaAu,0.0,eV,,,,,,,
GeC,1.6502,eV,,,,,,,
GeC,0.0,eV,,,,,,,
TcB,0.0,eV,,,,,,,
RuN,0.0,eV,,,,,,,
SiC,0.0,eV,,,,,,,
ReN,0.0,eV,,,,,,,
EuS,0.0,eV,,,,,,,
TlSb,0.0,eV,,,,,,,
TmSb,0.0,eV,,,,,,,
ErH,0.0,eV,,,,,,,
TlN,0.0,eV,,,,,,,
DyP,0.0,eV,,,,,,,
ErP,0.0,eV,,,,,,,
ErAs,0.0,eV,,,,,,,
RbSb,0.0,eV,,,,,,,
PtC,0.0,eV,,,,,,,
ErN,0.0,eV,,,,,,,
PuBi,0.0,eV,,,,,,,
La,0.0,eV,,,,,,,
Ce,0.0,eV,,,,,,,
SiRu$_{2}$,0.0,eV,,,,,,,
ScTe,0.0,eV,,,,,,,
TiSe,0.0,eV,,,,,,,
TbGe$_{2}$,0,eV,,,,,,,
RuC,0.0,eV,,,,,,,
Ge$_{2}$Os,0.0,eV,,,,,,,
NbS$_{2}$,0.0,eV,,,,,,,
Ce$_{3}$AlC,0.0,eV,,,,,,,
AlCo$_{3}$C,0.0,eV,,,,,,,
Er$_{3}$AlC,0.0,eV,,,,,,,
Pr$_{3}$AlC,0.0,eV,,,,,,,
Nb$_{3}$Si,0.0,eV,,,,,,,
AlPt$_{3}$C,0.0,eV,,,,,,,
Tb$_{3}$AlC,0.0,eV,,,,,,,
HfB$_{6}$,0.0,eV,,,,,,,
BAs,1.2022999999999993,eV,,,,,,,
Ba$_{5}$As$_{3}$,0.0,eV,,,,,,,
HPbI$_{3}$,0.0,eV,,,,,,,
SmB$_{12}$,0.0,eV,,,,,,,
WS,0.0,eV,,,,,,,
CsB$_{3}$PbF$_{12}$,6.2981,eV,,,,,,,
CsBPb(IF$_{2}$)$_{2}$,2.6219,eV,,,,,,,
CCl$_{4}$,4.5106,eV,,,,,,,
V$_{2}$AsC,0.0,eV,,,,,,,
Ca$_{5}$As$_{3}$,0.0,eV,,,,,,,
PrB$_{12}$,0.0,eV,,,,,,,
NdB$_{12}$,0.0,eV,,,,,,,
GaAs,0.0,eV,,,,,,,
MnAsRu,0.0,eV,,,,,,,
FeP,0.0,eV,,,,,,,
TeAs,0.0,eV,,,,,,,
TiAs,0.0,eV,,,,,,,
ZrAs,0.0,eV,,,,,,,
Co$_{2}$B$_{4}$Mo,0.0,eV,,,,,,,
UCo$_{3}$B$_{2}$,0.0,eV,,,,,,,
Sc$_{3}$Al$_{3}$C$_{2}$O$_{5}$,0.41270000000000007,eV,,,,,,,
Sm$_{6}$GaCo$_{2}$,0.0,eV,,,,,,,
Sm$_{2}$Co$_{12}$P$_{7}$,0.0,eV,,,,,,,
Sm$_{2}$InHg,0.0,eV,,,,,,,
VCoB$_{3}$,0.0,eV,,,,,,,
Sm$_{3}$Np,0.0,eV,,,,,,,
TmNp$_{3}$,0.0,eV,,,,,,,
Sm$_{3}$In,0.0,eV,,,,,,,
Sm$_{2}$AlGe$_{6}$,0.0,eV,,,,,,,
SmHSO$_{5}$,5.5679,eV,,,,,,,
SmGe$_{2}$Pt,0,eV,,,,,,,
Tl$_{3}$Os,0.0,eV,,,,,,,
SmGd$_{3}$,0,eV,,,,,,,
Sm$_{3}$Au,0,eV,,,,,,,
Sm$_{2}$(Ga$_{3}$Co)$_{3}$,0,eV,,,,,,,
Sm$_{2}$CuAs$_{3}$O,0.0,eV,,,,,,,
YbCo$_{3}$B$_{2}$,0,eV,,,,,,,
Sm$_{2}$Mn$_{12}$P$_{7}$,0.0,eV,,,,,,,
Tb$_{2}$Co$_{3}$Ge$_{5}$,0.0,eV,,,,,,,
Yb$_{3}$U,0.0,eV,,,,,,,
Sm$_{3}$Gd,0,eV,,,,,,,
ZrCo$_{3}$B$_{2}$,0.0,eV,,,,,,,
Tm$_{3}$Ni$_{7}$B$_{2}$,0.0,eV,,,,,,,
Zr$_{9}$CoMo$_{4}$,0.0,eV,,,,,,,
DyBPd$_{3}$,0.0,eV,,,,,,,
PaNi$_{2}$Ge,0.0,eV,,,,,,,
LaPrIn$_{2}$,0.0,eV,,,,,,,
UCd$_{2}$O$_{5}$,2.0821,eV,,,,,,,
Tl$_{3}$Bi,0.0,eV,,,,,,,
Gd$_{2}$AgRh,0.0,eV,,,,,,,
Lu(BRh)$_{4}$,0.0,eV,,,,,,,
ErBPd$_{3}$,0.0,eV,,,,,,,
Na$_{3}$Co,0.0,eV,,,,,,,
Ho$_{3}$Pu,0.0,eV,,,,,,,
P$_{2}$S$_{7}$,1.8908000000000003,eV,,,,,,,
Pa$_{3}$Mo,0.0,eV,,,,,,,
Hf$_{3}$Pb,0.0,eV,,,,,,,
Eu(MgBi)$_{2}$,0.0,eV,,,,,,,
Eu$_{3}$Re,0.0,eV,,,,,,,
Na$_{3}$Pu,0.0,eV,,,,,,,
PmPu$_{3}$,0.0,eV,,,,,,,
Ba$_{2}$NdNb(CuO$_{4}$)$_{2}$,0.0,eV,,,,,,,
GdB$_{12}$,0.0,eV,,,,,,,
ZnBi,0.0,eV,,,,,,,
EuInNi$_{5}$,0.002500000000000391,eV,,,,,,,
ErNp$_{3}$,0.0,eV,,,,,,,
CeSm$_{3}$,0.0,eV,,,,,,,
CeYTl$_{2}$,0.0,eV,,,,,,,
ErPu$_{3}$,0.0,eV,,,,,,,
CeGa$_{4}$Co$_{9}$,0.0,eV,,,,,,,
EuAcAu$_{2}$,0.0,eV,,,,,,,
Nd$_{7}$Co$_{3}$,0.0,eV,,,,,,,
Er$_{3}$(In$_{2}$Co)$_{2}$,0,eV,,,,,,,
CdSnSb$_{2}$,0.007000000000000117,eV,,,,,,,
Ce(CuSb)$_{2}$,0.0,eV,,,,,,,
Ce(FeB)$_{4}$,0.03910000000000036,eV,,,,,,,
CeLu$_{3}$,0.0,eV,,,,,,,
Ce(YS$_{2}$)$_{3}$,0.0,eV,,,,,,,
LiCeSn,0.0,eV,,,,,,,
Ce$_{3}$Cu,0.0,eV,,,,,,,
CeY$_{3}$,0.0,eV,,,,,,,
Er$_{2}$Co$_{3}$Ge$_{5}$,0.0,eV,,,,,,,
Ce$_{2}$HfSe$_{5}$,0.0,eV,,,,,,,
Ce$_{2}$SnSe$_{4}$,0.0,eV,,,,,,,
CePS,0.0,eV,,,,,,,
AgSO$_{4}$,0.0,eV,,,,,,,
Ce$_{4}$Si$_{3}$Rh$_{4}$,0.0,eV,,,,,,,
CeZnIn,0.0,eV,,,,,,,
SiO$_{2}$,1.7395999999999994,eV,,,,,,,
UFe$_{3}$B$_{2}$,0.0,eV,,,,,,,
Rb(Zr$_{3}$Te$_{4}$)$_{4}$,0.0034000000000000696,eV,,,,,,,
Zn$_{3}$In$_{2}$O$_{6}$,1.2096,eV,,,,,,,
Mg(InSe$_{2}$)$_{2}$,1.541,eV,,,,,,,
K$_{3}$Hf$_{2}$Se$_{11}$,0.07329999999999992,eV,,,,,,,
Ta$_{36}$B$_{4}$C$_{35}$,0.001900000000000901,eV,,,,,,,
Sb$_{4}$S$_{3}$N$_{6}$(OF)$_{12}$,0.10430000000000006,eV,,,,,,,
Na$_{2}$Al$_{2}$(SiO$_{4}$)$_{3}$,0.3396,eV,,,,,,,
CrCuN$_{6}$Cl$_{5}$,0.008100000000000218,eV,,,,,,,
Pr(NO$_{5}$)$_{3}$,0.02059999999999995,eV,,,,,,,
ZnP$_{2}$NO$_{9}$,0.09970000000000001,eV,,,,,,,
Sn$_{3}$PO$_{6}$,2.6155999999999997,eV,,,,,,,
Ce$_{2}$MnN$_{3}$,0.0,eV,,,,,,,
CsH$_{3}$,0.05070000000000019,eV,,,,,,,
BaO$_{2}$,2.1125,eV,,,,,,,
BiB,0.07979999999999965,eV,,,,,,,
CdC,0.0,eV,,,,,,,
CoNi,0.0,eV,,,,,,,
CoMo,0.0,eV,,,,,,,
KNdS$_{2}$,2.3669000000000002,eV,,,,,,,
CeS,0.0,eV,,,,,,,
KYS$_{2}$,2.4047,eV,,,,,,,
KSmSe$_{2}$,1.9719000000000002,eV,,,,,,,
Ce(P$_{3}$Ru)$_{4}$,0.2073999999999998,eV,,,,,,,
DySb,0.0,eV,,,,,,,
BaAg(PO$_{3}$)$_{3}$,3.1971,eV,,,,,,,
GeSe$_{2}$,1.5188000000000001,eV,,,,,,,
Hf$_{3}$(NiGe)$_{4}$,0.0,eV,,,,,,,
KLuS$_{2}$,2.5120999999999993,eV,,,,,,,
KNaH$_{2}$,2.5014000000000003,eV,,,,,,,
InAs,0.0038000000000000256,eV,,,,,,,
HfPd$_{3}$,0.0,eV,,,,,,,
HfRu$_{3}$,0.0,eV,,,,,,,
IrN,0.0,eV,,,,,,,
InSb,0.0,eV,,,,,,,
HoTlTe$_{2}$,0.8575000000000008,eV,,,,,,,
InPd$_{3}$,0.0,eV,,,,,,,
HoTlS$_{2}$,1.6584000000000003,eV,,,,,,,
HoAu,0.0,eV,,,,,,,
InAgSe$_{2}$,0.010800000000000587,eV,,,,,,,
HgPt$_{3}$,0.0,eV,,,,,,,
HfPt,0.0,eV,,,,,,,
HfOs$_{3}$,0.0,eV,,,,,,,
SnPO$_{4}$F,2.6443000000000003,eV,,,,,,,
HfAl$_{3}$,0.0,eV,,,,,,,
HfAu,0.0,eV,,,,,,,
HfCd,0.0,eV,,,,,,,
Ge,0.0,eV,,,,,,,
HW,0.0,eV,,,,,,,
ZnHCO$_{4}$,5.999999999999339E-4,eV,,,,,,,
TlAs,0.0,eV,,,,,,,
TlP,0.0,eV,,,,,,,
TbTiGe,0.0,eV,,,,,,,
CoW,0.0,eV,,,,,,,
GaCo$_{2}$Ni,0.0,eV,,,,,,,
GaBN$_{2}$,3.140900000000001,eV,,,,,,,
GaN,1.1047,eV,,,,,,,
FeCo$_{3}$,0.0,eV,,,,,,,
Fe$_{3}$Ni,0.0,eV,,,,,,,
FeNi$_{3}$,0.0,eV,,,,,,,
F$_{2}$,2.7932,eV,,,,,,,
FeB,0.0,eV,,,,,,,
TbAgGe,0.0,eV,,,,,,,
EuTlS$_{2}$,0,eV,,,,,,,
ErTlTe$_{2}$,0.8534999999999995,eV,,,,,,,
DyTlTe$_{2}$,0.8530999999999995,eV,,,,,,,
EuNaS$_{2}$,0.030399999999999983,eV,,,,,,,
DyAu,0.0,eV,,,,,,,
CuI,0.9455999999999998,eV,,,,,,,
CrNi$_{3}$,0,eV,,,,,,,
CrSiCu$_{2}$,0,eV,,,,,,,
CrInCu$_{2}$,0.0,eV,,,,,,,
CrNi$_{3}$,0.061799999999999855,eV,,,,,,,
CrNi$_{3}$,0.0,eV,,,,,,,
Cs,0,eV,,,,,,,
CrInNi$_{2}$,0.0045999999999999375,eV,,,,,,,
CrH,0.0,eV,,,,,,,
NiHg,0.0,eV,,,,,,,
PrGeBO$_{5}$,3.9977,eV,,,,,,,
CaSe,3.1581,eV,,,,,,,
CrCo$_{2}$Si,0.0,eV,,,,,,,
CrFe$_{2}$Sb,0.0,eV,,,,,,,
CrFe$_{2}$Sn,0.0,eV,,,,,,,
SnPOF$_{7}$,4.6387,eV,,,,,,,
Co$_{3}$W,0.0,eV,,,,,,,
Cr$_{3}$Ni,0.0,eV,,,,,,,
CrCo$_{2}$As,0.0,eV,,,,,,,
Co$_{3}$Mo,0.0,eV,,,,,,,
CrCo$_{3}$,0.0,eV,,,,,,,
Cr$_{3}$Fe,0.0,eV,,,,,,,
Ba,0.0,eV,,,,,,,
Co$_{3}$Ni,0.0,eV,,,,,,,
C,0,eV,,,,,,,
CeH$_{3}$,0.0,eV,,,,,,,
Cl$_{2}$,2.2452,eV,,,,,,,
C,2.4854000000000003,eV,,,,,,,
CdTe,0.0,eV,,,,,,,
CdSiP$_{2}$,0.0,eV,,,,,,,
CdN,0.0,eV,,,,,,,
BW,0.0,eV,,,,,,,
BiPd,0,eV,,,,,,,
CdN,0,eV,,,,,,,
BiI$_{3}$,0.2481,eV,,,,,,,
BeSiP$_{2}$,0,eV,,,,,,,
BrCl,1.8298,eV,,,,,,,
Ca,0.0,eV,,,,,,,
BaO,2.3598999999999997,eV,,,,,,,
Be,0.0,eV,,,,,,,
BaPd,0.0,eV,,,,,,,
BaGaSiH,0.5363000000000002,eV,,,,,,,
BaGaCu$_{2}$,0.016900000000000137,eV,,,,,,,
BC$_{2}$N,1.5059000000000005,eV,,,,,,,
BeSe,0.4424999999999999,eV,,,,,,,
B$_{2}$CN,0.5348000000000006,eV,,,,,,,
B$_{2}$CN,0.0,eV,,,,,,,
B$_{2}$AsP,1.0572,eV,,,,,,,
AlVFeCo,0.0,eV,,,,,,,
Al$_{3}$V,0.0,eV,,,,,,,
AlCu$_{3}$,0.0,eV,,,,,,,
AlGaN$_{2}$,2.6693,eV,,,,,,,
AlBN$_{2}$,3.0482999999999993,eV,,,,,,,
AuN,0.0,eV,,,,,,,
BP,1.0757000000000003,eV,,,,,,,
TmTlTe$_{2}$,0.8613,eV,,,,,,,
ZrTi$_{2}$,0.0,eV,,,,,,,
YSF,1.3132000000000001,eV,,,,,,,
ZrN$_{2}$,0.0,eV,,,,,,,
ZrAg$_{2}$,0.0,eV,,,,,,,
YbAg$_{2}$,0.0,eV,,,,,,,
YBiPd,0.0,eV,,,,,,,
W$_{2}$C,0.0,eV,,,,,,,
VTe$_{2}$,0.0,eV,,,,,,,
WC,0.0,eV,,,,,,,
VCoTe,0.0,eV,,,,,,,
V$_{2}$C,0.0,eV,,,,,,,
Au,0.0,eV,,,,,,,
UC$_{2}$,0.0,eV,,,,,,,
CeSe,0.0,eV,,,,,,,
AgC,0.0,eV,,,,,,,
AuC,0.0,eV,,,,,,,
U,0.0,eV,,,,,,,
TmCd$_{2}$,0.0,eV,,,,,,,
TiS$_{2}$,0.0,eV,,,,,,,
TiO$_{2}$,1.0551000000000004,eV,,,,,,,
TiGePt,0.8818999999999999,eV,,,,,,,
Sc,0.0,eV,,,,,,,
Ti$_{2}$Sn,0.0,eV,,,,,,,
Ti$_{2}$Si,0.0,eV,,,,,,,
CeScSi,0.0,eV,,,,,,,
Ti$_{2}$In,0.0,eV,,,,,,,
Ti$_{2}$Ga,0.0,eV,,,,,,,
Ti$_{2}$Ge,0.0,eV,,,,,,,
Ni,0.0,eV,,,,,,,
ThH$_{2}$,0.0,eV,,,,,,,
CeTe,0.0,eV,,,,,,,
Ti$_{2}$Al,0.0,eV,,,,,,,
TbHg$_{2}$,0.0,eV,,,,,,,
SrB$_{2}$,0.0,eV,,,,,,,
TaN$_{2}$,0.0,eV,,,,,,,
SrC$_{2}$,2.0237,eV,,,,,,,
SmHg$_{2}$,0.0,eV,,,,,,,
RuO$_{2}$,0.6074999999999999,eV,,,,,,,
MgTe,0.43430000000000035,eV,,,,,,,
ReN$_{2}$,0.0,eV,,,,,,,
ReC$_{2}$,0.0,eV,,,,,,,
RbCuO,0.0,eV,,,,,,,
PtN$_{2}$,0.0,eV,,,,,,,
RbAgO,0.0,eV,,,,,,,
PdN$_{2}$,0.0,eV,,,,,,,
OsN$_{2}$,0,eV,,,,,,,
OsN$_{2}$,0.0,eV,,,,,,,
NpN$_{2}$,0.0,eV,,,,,,,
OsC$_{2}$,0.0,eV,,,,,,,
NdBiPd,0.09030000000000005,eV,,,,,,,
NdCd$_{2}$,0.0,eV,,,,,,,
NaAgO,0.0,eV,,,,,,,
NaCuO,0.0,eV,,,,,,,
MnFeTe,0.0,eV,,,,,,,
MnCoSe,0.0,eV,,,,,,,
MnCoTe,0.0,eV,,,,,,,
Mn$_{2}$Sb,0.0,eV,,,,,,,
MnCoS,0.0,eV,,,,,,,
MgNiH,0.0,eV,,,,,,,
Ba$_{5}$Sb$_{4}$,0.2633000000000001,eV,,,,,,,
MgH$_{2}$,0.0,eV,,,,,,,
LuSb$_{2}$,0,eV,,,,,,,
MgAgSb,0.0,eV,,,,,,,
LuCd$_{2}$,0,eV,,,,,,,
LiMnAs,0.0,eV,,,,,,,
Mn$_{2}$Ge,0.0,eV,,,,,,,
CuN,0.0,eV,,,,,,,
LiFeP,0.0,eV,,,,,,,
CrTe,0.0,eV,,,,,,,
LiFeAs,0,eV,,,,,,,
EuSe,0.0,eV,,,,,,,
FeN,0.0,eV,,,,,,,
ErSb,0.0,eV,,,,,,,
CoN,0.0,eV,,,,,,,
LaS,0.0,eV,,,,,,,
LaSe,0.0,eV,,,,,,,
SrSi$_{6}$,0.0,eV,,,,,,,
LiCdAs,0.0,eV,,,,,,,
LuSb,0.3420999999999994,eV,,,,,,,
LaTe,0.0,eV,,,,,,,
LiF,7.5046,eV,,,,,,,
LiCuO,0.0,eV,,,,,,,
LuAs,0.0,eV,,,,,,,
HoSb,0.0,eV,,,,,,,
InAg,0.0,eV,,,,,,,
KCuO,0.0,eV,,,,,,,
KAgO,0.0,eV,,,,,,,
IrN$_{2}$,0.0,eV,,,,,,,
IrC$_{2}$,0.0,eV,,,,,,,
FeH,0.0,eV,,,,,,,
HoCd$_{2}$,0.0,eV,,,,,,,
MgSnAs$_{2}$,0.40390000000000015,eV,,,,,,,
MgSnP$_{2}$,1.2147000000000006,eV,,,,,,,
BeSnAs$_{2}$,0.6936999999999998,eV,,,,,,,
BeSiP$_{2}$,1.1498,eV,,,,,,,
BeSnP$_{2}$,0.9218000000000002,eV,,,,,,,
BeSiAs$_{2}$,1.0215999999999994,eV,,,,,,,
BeGeAs$_{2}$,0.6403000000000003,eV,,,,,,,
KV(CuSe$_{2}$)$_{2}$,0.8213000000000004,eV,,,,,,,
HoHg$_{2}$,0.0,eV,,,,,,,
MgO,2.2549,eV,,,,,,,
MnN,0.0,eV,,,,,,,
MgO,3.0152,eV,,,,,,,
MnAs,0.0,eV,,,,,,,
HoBiPd,0.0,eV,,,,,,,
MnCo,0.0,eV,,,,,,,
MnFe,0.0,eV,,,,,,,
MnP,0.0,eV,,,,,,,
KCu$_{4}$Se$_{3}$,0.0,eV,,,,,,,
MnSn,0.0,eV,,,,,,,
MnSb,0.0,eV,,,,,,,
MoC,0.0,eV,,,,,,,
HfN$_{2}$,0.0,eV,,,,,,,
NaH,1.7624000000000002,eV,,,,,,,
NaN,0,eV,,,,,,,
MnTe,0.0,eV,,,,,,,
NaAs,0.1524000000000001,eV,,,,,,,
NdAs,0.0,eV,,,,,,,
NdN,0.0,eV,,,,,,,
Hf$_{2}$Tl,0.0,eV,,,,,,,
NbCo,0.0,eV,,,,,,,
YbSr$_{2}$NbO$_{6}$,0.0,eV,,,,,,,
Tm$_{5}$(ReO$_{6}$)$_{2}$,0.006699999999999484,eV,,,,,,,
NbC,0.0,eV,,,,,,,
NbN,0.0,eV,,,,,,,
NiN,0.0,eV,,,,,,,
CrN,0.0,eV,,,,,,,
RbTe,0.0,eV,,,,,,,
O$_{2}$,1.5865999999999998,eV,,,,,,,
NpN,0.0,eV,,,,,,,
OsN,0.0,eV,,,,,,,
EuZnGe,0.0,eV,,,,,,,
PdC,0.0,eV,,,,,,,
OsC,0.0,eV,,,,,,,
OsC,0.14510000000000023,eV,,,,,,,
CsRbN,0.008599999999999941,eV,,,,,,,
DyBiPd,0.0,eV,,,,,,,
CsRbP,0.0,eV,,,,,,,
PaN,0.0,eV,,,,,,,
CsRbAs,0.0,eV,,,,,,,
PdN,0.0,eV,,,,,,,
PbS,0.0,eV,,,,,,,
CrO$_{2}$,0.0,eV,,,,,,,
CrSe$_{2}$,0.0,eV,,,,,,,
NiC,0.0,eV,,,,,,,
PrAs,0.0,eV,,,,,,,
CrFeTe,0.0,eV,,,,,,,
CrCoTe,0.0,eV,,,,,,,
Pr,0.0,eV,,,,,,,
Na$_{3}$Sr$_{3}$GaP$_{4}$,0.7488999999999999,eV,,,,,,,
PrN,1.5578999999999996,eV,,,,,,,
PrN,0.0,eV,,,,,,,
CoTe$_{2}$,0.0,eV,,,,,,,
CaHg$_{2}$,0.0,eV,,,,,,,
RhC,0.0,eV,,,,,,,
CaC$_{2}$,2.0049999999999994,eV,,,,,,,
CaGe$_{2}$,0.0,eV,,,,,,,
CaC$_{2}$,0.0,eV,,,,,,,
CaN$_{2}$,0.0,eV,,,,,,,
ReC,0.0,eV,,,,,,,
CaB$_{2}$,0.0,eV,,,,,,,
Na$_{3}$Sr$_{3}$GaAs$_{4}$,0.44189999999999996,eV,,,,,,,
RhN,0.0,eV,,,,,,,
Ca$_{2}$Sn,0.6639999999999997,eV,,,,,,,
Ca$_{2}$Si,0.5549,eV,,,,,,,
ScP,1.6463999999999999,eV,,,,,,,
ScSn,0.0036000000000000476,eV,,,,,,,
ScC,0.0968,eV,,,,,,,
ScN,2.5161000000000002,eV,,,,,,,
ScC,0,eV,,,,,,,
ScSi,0,eV,,,,,,,
ScGe,0.011800000000000033,eV,,,,,,,
Ca$_{2}$Ge,0.6577,eV,,,,,,,
Ca$_{2}$Pb,0.7222999999999997,eV,,,,,,,
Se,0,eV,,,,,,,
AgN,0.030299999999999994,eV,,,,,,,
AgN,0,eV,,,,,,,
RuN,0,eV,,,,,,,
RuN,0.0838000000000001,eV,,,,,,,
RuC,0.6637999999999993,eV,,,,,,,
YGeAu,0.0,eV,,,,,,,
SiSn,0.4112999999999998,eV,,,,,,,
SmAs,0.0,eV,,,,,,,
TaC,0.0,eV,,,,,,,
CN$_{2}$,1.0556,eV,,,,,,,
SrO,2.7428000000000003,eV,,,,,,,
SnC,0.6340999999999992,eV,,,,,,,
SnC,0.0,eV,,,,,,,
BeB$_{2}$,0.0,eV,,,,,,,
TaCo,0.05239999999999956,eV,,,,,,,
BaSi$_{2}$,0.0,eV,,,,,,,
BaSiC,0.33189999999999986,eV,,,,,,,
Be$_{2}$Si,0.0,eV,,,,,,,
Be$_{2}$Zn,0.0,eV,,,,,,,
TaN,0.0,eV,,,,,,,
TaC,0.052400000000000446,eV,,,,,,,
TaN,0,eV,,,,,,,
Al$_{2}$Ru,0.0,eV,,,,,,,
TaC,0.3860000000000001,eV,,,,,,,
ZrN,0,eV,,,,,,,
TcC,0,eV,,,,,,,
TbAl,0,eV,,,,,,,
ZrC,0.0,eV,,,,,,,
ZrN,0.0,eV,,,,,,,
ZrC,0.484,eV,,,,,,,
Ir,0.0,eV,,,,,,,
MnB$_{4}$,0.0,eV,,,,,,,
Br,0,eV,,,,,,,
CrCo,0.13459999999999983,eV,,,,,,,
CsAgC$_{2}$,2.6144,eV,,,,,,,
Cu,0.0,eV,,,,,,,
DyAs,0.0,eV,,,,,,,
KAgC$_{2}$,2.4623999999999997,eV,,,,,,,
YbLiAlF$_{6}$,7.6899999999999995,eV,,,,,,,
UTeAs,0.0,eV,,,,,,,
Ca$_{2}$As,0.0,eV,,,,,,,
NpP,0.0,eV,,,,,,,
NpS,0.0,eV,,,,,,,
MgNi,0.0,eV,,,,,,,
SiRh,0.0,eV,,,,,,,
LaB$_{2}$Ir$_{3}$,0.0,eV,,,,,,,
EuFeO$_{3}$,0.0,eV,,,,,,,
ScBIr$_{3}$,0.0,eV,,,,,,,
CeSe$_{2}$,0.11050000000000004,eV,,,,,,,
CeSe$_{2}$,0.0,eV,,,,,,,
ScB$_{4}$Ir$_{3}$,0.0,eV,,,,,,,
ThB$_{2}$Ir$_{3}$,0.0,eV,,,,,,,
UB$_{2}$Ir$_{3}$,0.0,eV,,,,,,,
Cs$_{2}$Se,1.7850000000000001,eV,,,,,,,
Cs$_{2}$Se,0.0,eV,,,,,,,
Cs$_{2}$Se,0.6342,eV,,,,,,,
Mg$_{3}$(Ni$_{10}$B$_{3}$)$_{2}$,0.0,eV,,,,,,,
Cs$_{2}$Se,1.8141000000000003,eV,,,,,,,
Mn$_{2}$AlO$_{4}$,0,eV,,,,,,,
Mn$_{3}$B$_{4}$,0.0,eV,,,,,,,
Na$_{2}$CoP$_{2}$O$_{7}$,3.0065,eV,,,,,,,
Na$_{2}$CoP$_{2}$O$_{7}$,2.6830999999999996,eV,,,,,,,
Na$_{2}$CoP$_{2}$O$_{7}$,3.0133,eV,,,,,,,
NdBPd$_{3}$,0.0,eV,,,,,,,
V$_{2}$NiO$_{6}$,2.6763,eV,,,,,,,
Ni$_{21}$(B$_{3}$Sb)$_{2}$,0.0,eV,,,,,,,
Tb(Ni$_{2}$B)$_{6}$,0.0,eV,,,,,,,
PbS,0.6904000000000003,eV,,,,,,,
SbIr,0.0,eV,,,,,,,
BaBrCl,4.4843,eV,,,,,,,
V$_{5}$SiB$_{2}$,0.0,eV,,,,,,,
CrFeCoNi,0,eV,,,,,,,
LiMo$_{2}$P$_{2}$O$_{9}$,1.8107000000000002,eV,,,,,,,
Na$_{3}$Ti$_{2}$(GeO$_{4}$)$_{3}$,2.8116000000000003,eV,,,,,,,
NaMo$_{3}$P$_{3}$O$_{13}$,1.512,eV,,,,,,,
Na$_{3}$V$_{2}$(GeO$_{4}$)$_{3}$,0.12230000000000008,eV,,,,,,,
H$_{6}$RuCI$_{3}$N,0,eV,,,,,,,
NaMn$_{3}$P$_{3}$O$_{13}$,0.03710000000000013,eV,,,,,,,
LiCr$_{3}$P$_{3}$O$_{13}$,0.09060000000000001,eV,,,,,,,
NaV$_{3}$P$_{3}$O$_{13}$,1.4265999999999999,eV,,,,,,,
ThGe$_{2}$,0.0,eV,,,,,,,
SmCu(WO$_{4}$)$_{2}$,1.4499000000000004,eV,,,,,,,
LiTi$_{3}$P$_{3}$O$_{13}$,0.03289999999999971,eV,,,,,,,
Li$_{3}$Cr$_{2}$(GeO$_{4}$)$_{3}$,0.024599999999999955,eV,,,,,,,
TmNi$_{4}$B,0.0,eV,,,,,,,
U$_{2}$(Ni$_{7}$B$_{2}$)$_{3}$,0.0,eV,,,,,,,
Zn$_{3}$(Ni$_{10}$B$_{3}$)$_{2}$,0.0,eV,,,,,,,
UB$_{2}$Os$_{3}$,0.0,eV,,,,,,,
Sc$_{3}$BPb,0.0,eV,,,,,,,
TmBPd$_{3}$,0.0,eV,,,,,,,
YbBPd$_{3}$,0.0,eV,,,,,,,
Ca$_{3}$N$_{2}$,0.011600000000000055,eV,,,,,,,
VS$_{2}$,0.0,eV,,,,,,,
BeGeP$_{2}$,0.8923000000000005,eV,,,,,,,
Ba$_{3}$N$_{2}$,0.0,eV,,,,,,,
Sr$_{3}$N$_{2}$,0.0,eV,,,,,,,
Sr$_{3}$BiP,0.0,eV,,,,,,,
Sr$_{3}$BiN,0.0,eV,,,,,,,
Sr$_{3}$AsP,0.0,eV,,,,,,,
Ba$_{3}$PN,0.0,eV,,,,,,,
Sr$_{3}$SbN,0.0,eV,,,,,,,
Sr$_{3}$SbP,0.0,eV,,,,,,,
Sr$_{3}$PN,0.0,eV,,,,,,,
Sr$_{3}$AsN,0.0,eV,,,,,,,
Ca$_{3}$PN,0.0,eV,,,,,,,
Sr$_{3}$SbAs,0.0,eV,,,,,,,
Ca$_{3}$BiN,0.0,eV,,,,,,,
Ca$_{3}$AsN,0.0,eV,,,,,,,
Ca$_{3}$SbAs,0.40180000000000016,eV,,,,,,,
Ca$_{3}$BiAs,0.0,eV,,,,,,,
Ca$_{3}$Sb$_{2}$,0.08640000000000025,eV,,,,,,,
Ca$_{3}$P$_{2}$,0.35139999999999993,eV,,,,,,,
Ca$_{3}$SbN,0.4096000000000002,eV,,,,,,,
Ba$_{3}$BiN,0.0,eV,,,,,,,
Ca$_{3}$SbP,0.6592999999999996,eV,,,,,,,
Ba$_{3}$P$_{2}$,0.07350000000000012,eV,,,,,,,
Sr$_{3}$P$_{2}$,0.05810000000000004,eV,,,,,,,
Sr$_{3}$PN,0.5116999999999998,eV,,,,,,,
Sr$_{3}$AsN,0.41830000000000034,eV,,,,,,,
Ba$_{3}$SbN,0.31389999999999985,eV,,,,,,,
Ca$_{3}$BiP,0.9365000000000001,eV,,,,,,,
Sr$_{3}$As$_{2}$,0.0,eV,,,,,,,
Ba$_{3}$As$_{2}$,0.5093000000000001,eV,,,,,,,
Sr$_{3}$SbAs,0.8687999999999998,eV,,,,,,,
Ba$_{3}$SbAs,0.7273000000000003,eV,,,,,,,
Ba$_{3}$BiAs,0.5365000000000002,eV,,,,,,,
Sr$_{3}$BiAs,0.6364999999999998,eV,,,,,,,
Na$_{2}$CoP$_{2}$O$_{7}$,2.5036,eV,,,,,,,
Na$_{2}$CoP$_{2}$O$_{7}$,2.9608,eV,,,,,,,
Ba$_{3}$Sb$_{2}$,0.5274000000000001,eV,,,,,,,
Sr$_{3}$Sb$_{2}$,0.0,eV,,,,,,,
Ba$_{3}$BiSb,0.0,eV,,,,,,,
Sr$_{3}$BiSb,0.0,eV,,,,,,,
Ba$_{3}$AsP,0.0,eV,,,,,,,
Sr$_{3}$Bi$_{2}$,0.0,eV,,,,,,,
Sr$_{3}$SbP,1.0240999999999998,eV,,,,,,,
Na$_{2}$CoP$_{2}$O$_{7}$,2.4637,eV,,,,,,,
Ti$_{2}$ReB$_{2}$,0.0,eV,,,,,,,
Ca$_{3}$AsP,0.19430000000000014,eV,,,,,,,
Ba$_{3}$BiP,0.0,eV,,,,,,,
UB$_{2}$Ru$_{3}$,0.0,eV,,,,,,,
Ca$_{3}$BiP,0.0,eV,,,,,,,
Ca$_{3}$BiSb,0.0,eV,,,,,,,
Sr$_{3}$BiAs,0.0,eV,,,,,,,
Ba$_{3}$SbN,0.0,eV,,,,,,,
Ba$_{3}$AsN,0.0,eV,,,,,,,
Ba$_{3}$SbP,0.0,eV,,,,,,,
Ba$_{3}$SbAs,0.0,eV,,,,,,,
Ba$_{3}$BiAs,0.0,eV,,,,,,,
Cd$_{4}$SF$_{6}$,1.8553000000000002,eV,,,,,,,
Cd$_{5}$(S$_{2}$Cl)$_{2}$,1.7228999999999999,eV,,,,,,,
Ca$_{3}$Bi$_{2}$,0.0,eV,,,,,,,
Ba$_{3}$Bi$_{2}$,0.0,eV,,,,,,,
Ba$_{3}$SbP,0.8351999999999999,eV,,,,,,,
Ca$_{3}$SbAs,0.0,eV,,,,,,,
Li$_{3}$Ti$_{2}$(GeO$_{4}$)$_{3}$,0.0,eV,,,,,,,
Sn$_{4}$SF$_{6}$,2.4495000000000005,eV,,,,,,,
Sn$_{5}$(S$_{2}$Cl)$_{2}$,1.2428,eV,,,,,,,
LiTi$_{2}$P$_{2}$O$_{9}$,0.042500000000000426,eV,,,,,,,
Na$_{3}$Co$_{2}$(GeO$_{4}$)$_{3}$,0.0,eV,,,,,,,
Li$_{3}$Ge$_{3}$(MoO$_{6}$)$_{2}$,0.0,eV,,,,,,,
Li$_{3}$Ni$_{2}$(GeO$_{4}$)$_{3}$,0.0,eV,,,,,,,
Na$_{3}$Ge$_{3}$(MoO$_{6}$)$_{2}$,0.0,eV,,,,,,,
Y(BRu)$_{4}$,0.0,eV,,,,,,,
Li$_{3}$Co$_{2}$(GeO$_{4}$)$_{3}$,0.0,eV,,,,,,,
Na$_{3}$Ni$_{2}$(GeO$_{4}$)$_{3}$,0.9485999999999999,eV,,,,,,,
NaCo$_{3}$P$_{3}$O$_{13}$,0.0,eV,,,,,,,
Na$_{3}$Mn$_{2}$(GeO$_{4}$)$_{3}$,0.0,eV,,,,,,,
NaMo$_{2}$P$_{2}$O$_{9}$,1.8074999999999999,eV,,,,,,,
Li$_{3}$Fe$_{2}$(GeO$_{4}$)$_{3}$,0.0,eV,,,,,,,
LiV$_{2}$P$_{2}$O$_{9}$,1.4893,eV,,,,,,,
Na$_{3}$Fe$_{2}$(GeO$_{4}$)$_{3}$,0.0,eV,,,,,,,
NaTi$_{3}$P$_{3}$O$_{13}$,0.0,eV,,,,,,,
LiV$_{3}$P$_{3}$O$_{13}$,1.2862,eV,,,,,,,
SiC,1.8876999999999988,eV,,,,,,,
SiC,1.8003999999999998,eV,,,,,,,