formula,Property Band Gap,Property Band Gap units,Property Band gap,Property Band gap units,Temperature (Property Band gap),Temperature (Property Band gap) units,Property Color,Temperature (Property Color),Temperature (Property Color) units
Ho$_{2}$Si$_{2}$O$_{7}$,5.0286,eV,,,,,,,
Al$_{17}$(SiPd$_{2}$)$_{4}$,0.013799999999999812,eV,,,,,,,
K$_{4}$Ta$_{2}$S$_{11}$,1.7096000000000002,eV,,,,,,,
TbGe$_{2}$Ir,0.011400000000000077,eV,,,,,,,
Ta$_{2}$Ni,0.0,eV,,,,,,,
Ca$_{5}$(SnAs$_{3}$)$_{2}$,0.24129999999999985,eV,,,,,,,
CsDy$_{2}$Cu$_{3}$Se$_{5}$,1.4763999999999995,eV,,,,,,,
CsZnPO$_{4}$,3.8805999999999994,eV,,,,,,,
PrSc$_{3}$(BO$_{3}$)$_{4}$,4.3835,eV,,,,,,,
Nd$_{2}$Ge$_{5}$Rh$_{3}$,0.0,eV,,,,,,,
Tm$_{8}$S$_{11}$,0.0,eV,,,,,,,
KPF$_{6}$,7.2209,eV,,,,,,,
SrCu$_{2}$GeS$_{4}$,1.0462999999999996,eV,,,,,,,
ZrCr$_{5}$P$_{3}$,0.0,eV,,,,,,,
NbF$_{5}$,4.566199999999999,eV,,,,,,,
GaPd$_{2}$,0.0,eV,,,,,,,
SmF$_{3}$,5.4407000000000005,eV,,,,,,,
Rb$_{2}$Ni$_{3}$Se$_{4}$,0.2661,eV,,,,,,,
Fe$_{15}$Co,0.0,eV,,,,,,,
CsPr(CO$_{3}$)$_{2}$,4.5623,eV,,,,,,,
K$_{4}$SiO$_{4}$,2.9391,eV,,,,,,,
Ba$_{3}$YRu$_{2}$O$_{9}$,0.0,eV,,,,,,,
AgPO$_{3}$,2.0246000000000004,eV,,,,,,,
CsLiBeF$_{4}$,6.8736,eV,,,,,,,
TbSr$_{3}$RhO$_{6}$,2.1142,eV,,,,,,,
Y$_{5}$(FeTe)$_{2}$,0.0,eV,,,,,,,
Mg$_{3}$Pt,0.0,eV,,,,,,,
Fe$_{3}$P,0.0,eV,,,,,,,
Fe$_{2}$C,0.0,eV,,,,,,,
RbSm$_{2}$Ag$_{3}$Se$_{5}$,1.0495999999999999,eV,,,,,,,
LiNd(PO$_{3}$)$_{4}$,6.077,eV,,,,,,,
Mg$_{3}$Pd,0.0,eV,,,,,,,
Ba$_{2}$Li(CuO$_{2}$)$_{3}$,0.0,eV,,,,,,,
SrVO$_{3}$,0.24469999999999992,eV,,,,,,,
Ca(NiO$_{2}$)$_{4}$,0.4838,eV,,,,,,,
KLu(WO$_{4}$)$_{2}$,3.2443,eV,,,,,,,
Mn$_{2}$CdO$_{4}$,0.8848000000000003,eV,,,,,,,
Mn$_{2}$P$_{2}$O$_{7}$,3.2650000000000006,eV,,,,,,,
Cs$_{2}$LiMnO$_{4}$,1.818,eV,,,,,,,
BaV$_{2}$(NiO$_{4}$)$_{2}$,2.6681999999999997,eV,,,,,,,
Sr$_{2}$CoO$_{4}$,0,eV,,,,,,,
YCrO$_{3}$,2.4831000000000003,eV,,,,,,,
CrNiO$_{4}$,1.924,eV,,,,,,,
LiCr(SiO$_{3}$)$_{2}$,3.0382,eV,,,,,,,
NaFe$_{2}$O$_{3}$,0,eV,,,,,,,
V$_{2}$Co(PO$_{5}$)$_{2}$,1.5733000000000001,eV,,,,,,,
ZnF$_{2}$,3.48,eV,,,,,,,
K$_{3}$Na(FeO$_{4}$)$_{2}$,1.3601,eV,,,,,,,
Fe$_{3}$O$_{4}$,0.7237,eV,,,,,,,
TiNiO$_{3}$,2.8864999999999994,eV,,,,,,,
AlTl(MoO$_{4}$)$_{2}$,3.8676,eV,,,,,,,
HoVO$_{4}$,3.0265,eV,,,,,,,
Ba$_{2}$Co(BO$_{2}$)$_{6}$,2.1832,eV,,,,,,,
Nd$_{2}$NiO$_{4}$,1.7465000000000002,eV,,,,,,,
Nd$_{4}$Ni$_{3}$O$_{8}$,0,eV,,,,,,,
BaYMn$_{2}$O$_{6}$,0,eV,,,,,,,
V$_{2}$Cd$_{2}$O$_{7}$,2.5559000000000003,eV,,,,,,,
RbLiCrO$_{4}$,2.9916,eV,,,,,,,
Sr$_{2}$CaWO$_{6}$,3.2729,eV,,,,,,,
CaMnP$_{2}$O$_{7}$,4.3248,eV,,,,,,,
Sr$_{2}$ErMoO$_{6}$,1.2340999999999998,eV,,,,,,,
LaMnSbO,0.0,eV,,,,,,,
BaEr$_{2}$CoO$_{5}$,1.4018000000000002,eV,,,,,,,
SrMoO$_{3}$,0.03399999999999981,eV,,,,,,,
Co$_{3}$O$_{4}$,0.0,eV,,,,,,,
NiSO$_{4}$,3.2555000000000005,eV,,,,,,,
TeF$_{6}$,4.3688,eV,,,,,,,
Mn(FeO$_{2}$)$_{2}$,0.9977000000000005,eV,,,,,,,
Mn$_{2}$ZnO$_{4}$,0.7286999999999999,eV,,,,,,,
Yb$_{2}$BaNiO$_{5}$,0.057399999999999896,eV,,,,,,,
Na$_{3}$Mo(OF)$_{3}$,3.8926999999999996,eV,,,,,,,
DyCrO$_{4}$,0.2492000000000001,eV,,,,,,,
NdMnSbO,0.0,eV,,,,,,,
BaTm$_{2}$NiO$_{5}$,2.2826,eV,,,,,,,
Sr$_{2}$CdWO$_{6}$,3.3145000000000002,eV,,,,,,,
Co$_{2}$GeO$_{4}$,0.0,eV,,,,,,,
Mn$_{3}$O$_{4}$,0.6925999999999997,eV,,,,,,,
SnS,0.08940000000000037,eV,,,,,,,
K$_{3}$V$_{3}$O$_{8}$,1.8032,eV,,,,,,,
Na$_{4}$CoO$_{3}$,1.1125999999999998,eV,,,,,,,
BaNd$_{2}$NiO$_{5}$,2.0531,eV,,,,,,,
Ba$_{2}$SrWO$_{6}$,3.2478000000000002,eV,,,,,,,
Na$_{2}$NiO$_{2}$,2.6239,eV,,,,,,,
Si(NiO$_{2}$)$_{2}$,3.385600000000001,eV,,,,,,,
LiMnO$_{2}$,1.0628000000000002,eV,,,,,,,
CeVO$_{3}$,0.04359999999999964,eV,,,,,,,
HoAl$_{3}$,0.0,eV,,,,,,,
YCrO$_{3}$,2.1654,eV,,,,,,,
Sr$_{2}$CoWO$_{6}$,1.6379000000000006,eV,,,,,,,
Na$_{4}$Mo(NO)$_{2}$,2.2032999999999996,eV,,,,,,,
WO$_{3}$,1.3319,eV,,,,,,,
NaFeP$_{2}$O$_{7}$,2.4732000000000003,eV,,,,,,,
Fe$_{3}$PO$_{7}$,2.1905,eV,,,,,,,
CaCoP$_{2}$O$_{7}$,2.7472000000000003,eV,,,,,,,
Zr(WO$_{4}$)$_{2}$,3.6052,eV,,,,,,,
Na$_{2}$CrO$_{4}$,2.8677,eV,,,,,,,
HfBe$_{13}$,0.0,eV,,,,,,,
K$_{2}$WO$_{4}$,4.384399999999999,eV,,,,,,,
CrCdO$_{4}$,2.2881,eV,,,,,,,
LiFeO$_{2}$,1.3005,eV,,,,,,,
Ca$_{2}$FeMoO$_{6}$,1.4499,eV,,,,,,,
DyVO$_{4}$,2.9764,eV,,,,,,,
CrWO$_{4}$,1.6685999999999996,eV,,,,,,,
Ca$_{2}$CoSi$_{2}$O$_{7}$,3.0599,eV,,,,,,,
Ba$_{2}$Mn$_{3}$(SbO)$_{2}$,0.0,eV,,,,,,,
CrCoO$_{4}$,1.4983,eV,,,,,,,
TlCo(CO)$_{4}$,3.0826,eV,,,,,,,
Ba$_{4}$Mn$_{3}$O$_{10}$,1.1454000000000004,eV,,,,,,,
Ca$_{3}$(CoO$_{3}$)$_{2}$,0.0,eV,,,,,,,
LiCrO$_{2}$,3.0000999999999998,eV,,,,,,,
Sm$_{2}$TiMnO$_{6}$,1.9061,eV,,,,,,,
Mn$_{3}$TeO$_{6}$,0.7581999999999995,eV,,,,,,,
Yb$_{2}$V$_{2}$O$_{7}$,0.0,eV,,,,,,,
Sr$_{2}$Mn$_{2}$O$_{5}$,0.4341000000000004,eV,,,,,,,
YbVO$_{4}$,0.0,eV,,,,,,,
AlPt$_{3}$,0.0,eV,,,,,,,
SbF$_{3}$,4.4380999999999995,eV,,,,,,,
Cr$_{2}$SiO$_{4}$,1.9961000000000002,eV,,,,,,,
YbV$_{4}$O$_{8}$,0.8266999999999998,eV,,,,,,,
BaPr$_{2}$NiO$_{5}$,2.0241,eV,,,,,,,
Na$_{2}$WO$_{4}$,4.7520999999999995,eV,,,,,,,
BaDyCo$_{4}$O$_{7}$,0.19060000000000032,eV,,,,,,,
Sr$_{2}$CoMoO$_{6}$,0.4208999999999996,eV,,,,,,,
Ni$_{3}$(BO$_{3}$)$_{2}$,3.0436,eV,,,,,,,
V$_{2}$Zn$_{2}$O$_{7}$,2.3404000000000003,eV,,,,,,,
LuMnO$_{3}$,9.999999999976694E-5,eV,,,,,,,
Li$_{2}$VGeO$_{5}$,2.1485,eV,,,,,,,
NdVO$_{4}$,3.0195,eV,,,,,,,
MnCO$_{3}$,3.4614000000000003,eV,,,,,,,
KVO$_{3}$,3.0372000000000003,eV,,,,,,,
Fe$_{2}$SiO$_{4}$,2.7099,eV,,,,,,,
NiSeO$_{4}$,2.1045000000000003,eV,,,,,,,
Ni$_{2}$P$_{2}$O$_{7}$,3.7657,eV,,,,,,,
CaCu$_{5}$,0.0,eV,,,,,,,
Sr$_{3}$Fe$_{2}$O$_{7}$,0,eV,,,,,,,
Y$_{5}$(MoO$_{6}$)$_{2}$,0.8011000000000004,eV,,,,,,,
Mn$_{2}$PO$_{4}$F,2.7959,eV,,,,,,,
K$_{2}$BaCo(NO$_{2}$)$_{6}$,1.0293,eV,,,,,,,
YCrO$_{4}$,0.26760000000000006,eV,,,,,,,
AlVO$_{4}$,3.0384,eV,,,,,,,
TlFeO$_{2}$,1.0500000000000003,eV,,,,,,,
Sr$_{2}$ZnMoO$_{6}$,2.3688999999999996,eV,,,,,,,
SnTe,0.04279999999999973,eV,,,,,,,
Fe$_{2}$PO$_{5}$,0.0,eV,,,,,,,
Y$_{2}$Mn$_{2}$O$_{7}$,0.8710999999999998,eV,,,,,,,
K$_{2}$VO$_{2}$F$_{3}$,2.9836,eV,,,,,,,
Sr$_{3}$Cr$_{2}$O$_{8}$,0.0,eV,,,,,,,
SrMoO$_{4}$,3.8051000000000004,eV,,,,,,,
VPO$_{4}$,1.7687,eV,,,,,,,
KSc(MoO$_{4}$)$_{2}$,3.6132,eV,,,,,,,
K$_{2}$MnSO$_{4}$F$_{3}$,1.5128,eV,,,,,,,
Pr$_{2}$NiO$_{4}$,0.5583,eV,,,,,,,
Ca$_{5}$Ge$_{3}$,0.0,eV,,,,,,,
BaMnO$_{3}$,0.8952999999999998,eV,,,,,,,
LaCrO$_{3}$,2.3172000000000006,eV,,,,,,,
TlV$_{4}$O$_{10}$,0.04640000000000022,eV,,,,,,,
Ca$_{3}$FeRhO$_{6}$,1.4702000000000002,eV,,,,,,,
CaMn$_{2}$O$_{4}$,1.4165,eV,,,,,,,
Ba$_{2}$FeWO$_{6}$,0.0,eV,,,,,,,
Na$_{4}$(CoO$_{2}$)$_{7}$,0.05180000000000007,eV,,,,,,,
V$_{2}$CdO$_{4}$,0.0,eV,,,,,,,
Sr$_{2}$MgWO$_{6}$,3.2641,eV,,,,,,,
Fe$_{2}$P$_{2}$O$_{7}$,3.7687,eV,,,,,,,
AlIr,0.0,eV,,,,,,,
BaYMn$_{2}$O$_{5}$,0.1488000000000005,eV,,,,,,,
NaCr(WO$_{4}$)$_{2}$,2.2640000000000002,eV,,,,,,,
Na$_{2}$MoO$_{4}$,4.3938999999999995,eV,,,,,,,
TlV$_{2}$AgO$_{6}$,2.1487,eV,,,,,,,
Sr$_{2}$CrO$_{4}$,0.028999999999999915,eV,,,,,,,
Co$_{2}$Te$_{3}$O$_{8}$,2.4752,eV,,,,,,,
MoO$_{3}$,1.3723,eV,,,,,,,
Sr$_{2}$FeMoO$_{6}$,0.0,eV,,,,,,,
Sr$_{5}$Cr$_{3}$O$_{12}$F,1.0271,eV,,,,,,,
TbTl$_{3}$,0.0,eV,,,,,,,
Li$_{2}$VSiO$_{5}$,2.3621,eV,,,,,,,
BaNd$_{2}$Mn$_{2}$O$_{7}$,0,eV,,,,,,,
La$_{2}$CoIrO$_{6}$,0,eV,,,,,,,
PrCrO$_{4}$,0.24819999999999998,eV,,,,,,,
Rb$_{2}$WO$_{4}$,4.385400000000001,eV,,,,,,,
K$_{3}$(FeO$_{2}$)$_{2}$,0.0,eV,,,,,,,
CaV$_{4}$O$_{9}$,2.4882000000000004,eV,,,,,,,
Ba$_{3}$W$_{2}$O$_{9}$,3.6729000000000003,eV,,,,,,,
RbFe(MoO$_{4}$)$_{2}$,2.6065,eV,,,,,,,
Na$_{4}$Mn$_{2}$O$_{5}$,0.6534,eV,,,,,,,
MoP$_{2}$,0.0,eV,,,,,,,
Mn$_{3}$Cd$_{2}$O$_{8}$,1.1042999999999998,eV,,,,,,,
Rb$_{2}$NaMnO$_{4}$,1.8116000000000003,eV,,,,,,,
MgWO$_{4}$,3.6767000000000003,eV,,,,,,,
K$_{3}$CrO$_{8}$,1.7840999999999998,eV,,,,,,,
LiFeAs$_{2}$O$_{7}$,2.5882,eV,,,,,,,
V$_{2}$ZnO$_{4}$,1.6539999999999995,eV,,,,,,,
RbGe,1.0150000000000001,eV,,,,,,,
ErVO$_{4}$,2.7173,eV,,,,,,,
KCr$_{4}$O$_{8}$,0.0940000000000003,eV,,,,,,,
VSiP$_{2}$O$_{9}$,2.7465,eV,,,,,,,
YVO$_{3}$,1.5639000000000003,eV,,,,,,,
Na$_{4}$CrO$_{4}$,1.8877,eV,,,,,,,
LaCrS$_{2}$O,1.0976,eV,,,,,,,
Sr$_{2}$CdWO$_{6}$,3.5122,eV,,,,,,,
VAg$_{3}$O$_{4}$,0.9197000000000002,eV,,,,,,,
CaFe(SiO$_{3}$)$_{2}$,3.0854999999999997,eV,,,,,,,
BaV$_{6}$O$_{11}$,0.0,eV,,,,,,,
KBaVO$_{4}$,3.979,eV,,,,,,,
Ca$_{2}$Mn$_{3}$O$_{8}$,1.4426999999999999,eV,,,,,,,
CaCo(SiO$_{3}$)$_{2}$,2.6563,eV,,,,,,,
KCoO$_{2}$,0.0,eV,,,,,,,
V$_{6}$O$_{13}$,0.5151000000000001,eV,,,,,,,
NaVTeO$_{5}$,3.0152,eV,,,,,,,
Sr(NiO$_{2}$)$_{4}$,0.37180000000000035,eV,,,,,,,
Nd$_{2}$MnNiO$_{6}$,1.5317000000000003,eV,,,,,,,
SiRu,0.22589999999999932,eV,,,,,,,
BMo,0.0,eV,,,,,,,
MgV$_{2}$O$_{4}$,0.0,eV,,,,,,,
VAgHgO$_{4}$,1.2167,eV,,,,,,,
Li$_{2}$WO$_{4}$,4.877,eV,,,,,,,
Sr$_{2}$CdWO$_{6}$,3.5352,eV,,,,,,,
Ba$_{2}$NdMoO$_{6}$,0,eV,,,,,,,
FeO,0,eV,,,,,,,
CrPO$_{4}$,1.8393000000000002,eV,,,,,,,
Ca$_{2}$MnAlO$_{5}$,0.0,eV,,,,,,,
Sr$_{2}$NiTeO$_{6}$,2.1132000000000004,eV,,,,,,,
BaNi$_{2}$(PO$_{4}$)$_{2}$,3.7407,eV,,,,,,,
SmAl$_{4}$,0.0,eV,,,,,,,
BaV$_{4}$O$_{9}$,1.0483000000000002,eV,,,,,,,
LiVP$_{2}$O$_{7}$,2.1256,eV,,,,,,,
Na$_{5}$NiSO$_{2}$,1.4204999999999999,eV,,,,,,,
Ba$_{3}$Cr$_{2}$O$_{8}$,0.0,eV,,,,,,,
K$_{2}$MoO$_{4}$,4.3131,eV,,,,,,,
LiCoPO$_{4}$,2.4571,eV,,,,,,,
Na$_{7}$Fe$_{3}$O$_{8}$,2.1599,eV,,,,,,,
ZnWO$_{4}$,3.2609000000000004,eV,,,,,,,
CoPdO$_{2}$,0.0,eV,,,,,,,
Ba$_{2}$N,0.05479999999999974,eV,,,,,,,
NaCoO$_{2}$,2.1096000000000004,eV,,,,,,,
Mn$_{5}$O$_{8}$,0.5297999999999998,eV,,,,,,,
Sr$_{3}$(FeO$_{3}$)$_{2}$,0.5069999999999997,eV,,,,,,,
Li$_{6}$CoO$_{4}$,2.4,eV,,,,,,,
La$_{3}$Ni$_{2}$O$_{7}$,0.0,eV,,,,,,,
Zr$_{3}$NiO,0,eV,,,,,,,
Mn$_{2}$SiO$_{4}$,2.3412999999999995,eV,,,,,,,
BaV$_{2}$O$_{6}$,2.8550999999999997,eV,,,,,,,
LiPr(WO$_{4}$)$_{2}$,3.6337,eV,,,,,,,
Li$_{2}$WO$_{4}$,4.3259,eV,,,,,,,
LiV$_{2}$O$_{5}$,0.0019000000000000128,eV,,,,,,,
K$_{2}$V(PO$_{4}$)$_{2}$,2.6958,eV,,,,,,,
NdFe$_{3}$(BO$_{3}$)$_{4}$,2.3192999999999997,eV,,,,,,,
V$_{2}$O$_{3}$,0.47609999999999975,eV,,,,,,,
Tl$_{2}$MoO$_{4}$,3.4611,eV,,,,,,,
LiCo(CO)$_{4}$,4.0429,eV,,,,,,,
Sr$_{2}$NiMoO$_{6}$,2.3104,eV,,,,,,,
Co$_{2}$SiO$_{4}$,1.3970000000000002,eV,,,,,,,
VP$_{2}$O$_{7}$,2.7488,eV,,,,,,,
BaNiO$_{2}$,2.3034,eV,,,,,,,
Na$_{5}$Y(WO$_{4}$)$_{4}$,4.7451,eV,,,,,,,
VBO$_{3}$,1.8227000000000002,eV,,,,,,,
VFeO$_{4}$,1.8222999999999998,eV,,,,,,,
TaO,0.0,eV,,,,,,,
BaCa(FeO$_{2}$)$_{4}$,1.7786000000000002,eV,,,,,,,
LiFePO$_{4}$,3.5132999999999996,eV,,,,,,,
Ca$_{4}$Mn$_{2}$O$_{7}$,1.2850000000000001,eV,,,,,,,
NaV(OF)$_{2}$,2.3785,eV,,,,,,,
ScMnO$_{3}$,0.0,eV,,,,,,,
SmCrO$_{4}$,0.2479,eV,,,,,,,
NaMnO$_{2}$,1.2563999999999997,eV,,,,,,,
UMoO$_{6}$,2.1682,eV,,,,,,,
Y$_{2}$Be$_{2}$Fe(SiO$_{5}$)$_{2}$,3.9209,eV,,,,,,,
ErVO$_{4}$,2.9661,eV,,,,,,,
ScCrO$_{3}$,2.4812000000000003,eV,,,,,,,
Sr$_{2}$CaMoO$_{6}$,2.2555,eV,,,,,,,
Ba$_{2}$Mn$_{3}$(AsO)$_{2}$,0,eV,,,,,,,
K$_{3}$NaCr$_{2}$O$_{8}$,3.0493,eV,,,,,,,
BaCoO$_{3}$,0.0,eV,,,,,,,
FeAgO$_{2}$,1.1656999999999997,eV,,,,,,,
Ba$_{2}$CoMoO$_{6}$,0.0,eV,,,,,,,
Li$_{2}$FeSiO$_{4}$,3.1235999999999997,eV,,,,,,,
FeCO$_{3}$,0.0,eV,,,,,,,
PuRh$_{2}$,0.0,eV,,,,,,,
Mn(PtO$_{2}$)$_{3}$,0.2408999999999999,eV,,,,,,,
Sr$_{2}$VO$_{4}$,0,eV,,,,,,,
CoSe$_{2}$O$_{5}$,2.3763,eV,,,,,,,
HoNiO$_{3}$,0.0,eV,,,,,,,
Na$_{2}$SrV$_{4}$O$_{12}$,3.0362,eV,,,,,,,
Ba$_{2}$CaWO$_{6}$,3.1774999999999998,eV,,,,,,,
Sr$_{2}$MnO$_{4}$,0.023700000000000276,eV,,,,,,,
TbFe$_{3}$(BO$_{3}$)$_{4}$,2.3316,eV,,,,,,,
CeSi$_{2}$,0,eV,,,,,,,
Sr$_{2}$CaWO$_{6}$,3.2261999999999995,eV,,,,,,,
Sr$_{3}$NiIrO$_{6}$,0,eV,,,,,,,
ErNiO$_{3}$,0.0,eV,,,,,,,
Na$_{2}$ZrNi(P$_{2}$O$_{7}$)$_{2}$,3.7889999999999997,eV,,,,,,,
Ba$_{2}$MgWO$_{6}$,3.2230999999999996,eV,,,,,,,
LiMoP$_{2}$O$_{7}$,4.043200000000001,eV,,,,,,,
Li$_{2}$MnO$_{3}$,1.7742000000000002,eV,,,,,,,
LaVO$_{4}$,3.5130999999999997,eV,,,,,,,
Ba$_{2}$Mn(BO$_{2}$)$_{6}$,3.9788000000000006,eV,,,,,,,
Ba(NiO$_{2}$)$_{4}$,0.28459999999999974,eV,,,,,,,
Ba$_{2}$MnTeO$_{6}$,0.9367000000000005,eV,,,,,,,
LuVO$_{4}$,2.9436,eV,,,,,,,
CsMnO$_{4}$,2.2208,eV,,,,,,,
Ba$_{2}$FeMoO$_{6}$,0.0,eV,,,,,,,
TlV$_{3}$O$_{8}$,2.0029999999999997,eV,,,,,,,
LiMnPO$_{4}$,3.4114999999999998,eV,,,,,,,
Sr$_{4}$Mn$_{3}$O$_{10}$,1.303,eV,,,,,,,
NaMn$_{7}$O$_{12}$,0.0,eV,,,,,,,
Te,0.16670000000000051,eV,,,,,,,
ReO$_{3}$,0.0,eV,,,,,,,
CaAs$_{3}$,0.0,eV,,,,,,,
VPO$_{5}$,1.8518000000000003,eV,,,,,,,
SrMnO$_{3}$,0.8108,eV,,,,,,,
TmNiO$_{3}$,0.07419999999999982,eV,,,,,,,
MgV$_{2}$O$_{5}$,2.3023,eV,,,,,,,
Sr$_{8}$Fe$_{8}$O$_{23}$,0,eV,,,,,,,
Y$_{6}$WO$_{12}$,3.4318,eV,,,,,,,
MnO,0.5502000000000002,eV,,,,,,,
V$_{2}$PO$_{5}$,0.0,eV,,,,,,,
NiO,2.4978,eV,,,,,,,
NaO$_{2}$,0.0,eV,,,,,,,
Ba$_{2}$NiTeO$_{6}$,2.3261,eV,,,,,,,
CaMoO$_{3}$,1.1542000000000003,eV,,,,,,,
LiV$_{2}$O$_{5}$,0.27370000000000005,eV,,,,,,,
Sr$_{2}$CdWO$_{6}$,3.4047,eV,,,,,,,
VCrMoO$_{7}$,2.4206,eV,,,,,,,
LiFePO$_{4}$,3.9223999999999997,eV,,,,,,,
NiMoO$_{4}$,2.1744000000000003,eV,,,,,,,
MnPd,0.0,eV,,,,,,,
BaCo$_{2}$(PO$_{4}$)$_{2}$,2.2291999999999996,eV,,,,,,,
Na$_{4}$FeO$_{4}$,0.3336999999999999,eV,,,,,,,
YbCrO$_{4}$,2.3211,eV,,,,,,,
HoVO$_{3}$,1.5710000000000006,eV,,,,,,,
LaMnO$_{3}$,0.38429999999999964,eV,,,,,,,
Na$_{4}$FeO$_{3}$,1.0702,eV,,,,,,,
Na$_{5}$CoSO$_{2}$,1.1386999999999998,eV,,,,,,,
Na$_{3}$Fe(PO$_{4}$)$_{2}$,2.4126000000000003,eV,,,,,,,
RbCr$_{4}$O$_{8}$,0.3376000000000001,eV,,,,,,,
BaAl$_{4}$,0.0,eV,,,,,,,
La$_{4}$V$_{5}$(Si$_{2}$O$_{11}$)$_{2}$,0.8078000000000003,eV,,,,,,,
RbVO$_{3}$,3.0513,eV,,,,,,,
WO$_{3}$,1.4239,eV,,,,,,,
Mg$_{3}$V$_{2}$O$_{8}$,3.3068,eV,,,,,,,
BaFeO$_{3}$,0.14849999999999985,eV,,,,,,,
Tm$_{2}$V$_{2}$O$_{7}$,1.1145000000000005,eV,,,,,,,
K$_{2}$W$_{2}$O$_{7}$,2.4572000000000003,eV,,,,,,,
SrV$_{2}$O$_{6}$,2.8228,eV,,,,,,,
CdMoO$_{4}$,2.4682,eV,,,,,,,
Ca$_{3}$Mn$_{2}$O$_{7}$,0.4839000000000002,eV,,,,,,,
LiV(SiO$_{3}$)$_{2}$,2.0674,eV,,,,,,,
Na$_{2}$FeO$_{4}$,0.999,eV,,,,,,,
Ba$_{2}$MnZn$_{2}$(AsO)$_{2}$,0.0,eV,,,,,,,
KMnO$_{4}$,2.0689,eV,,,,,,,
MgMoO$_{4}$,3.7826999999999997,eV,,,,,,,
BaWO$_{4}$,4.8822,eV,,,,,,,
BaTeMo$_{2}$O$_{9}$,2.8743,eV,,,,,,,
Ca$_{2}$MnO$_{4}$,0.371,eV,,,,,,,
LaCoO$_{3}$,0.03669999999999973,eV,,,,,,,
K$_{3}$VO$_{4}$,3.6662999999999997,eV,,,,,,,
LaVO$_{3}$,0.02059999999999995,eV,,,,,,,
BaMnCO$_{3}$F$_{2}$,4.0865,eV,,,,,,,
HoCrO$_{4}$,0.6760999999999999,eV,,,,,,,
HoMnO$_{3}$,0.0,eV,,,,,,,
CaNiP$_{2}$O$_{7}$,3.8717,eV,,,,,,,
Ba$_{3}$CoRu$_{2}$O$_{9}$,0.0,eV,,,,,,,
Ca$_{2}$FeWO$_{6}$,0.058900000000000396,eV,,,,,,,
Sr$_{2}$Mn$_{3}$(AsO)$_{2}$,0,eV,,,,,,,
LiFe(SiO$_{3}$)$_{2}$,2.7546999999999997,eV,,,,,,,
NdCrO$_{3}$,2.2715000000000005,eV,,,,,,,
ErCrO$_{3}$,2.51,eV,,,,,,,
Yb$_{2}$Fe$_{3}$O$_{7}$,0.4144000000000001,eV,,,,,,,
Ho$_{6}$WO$_{12}$,3.4086,eV,,,,,,,
W$_{3}$O$_{8}$,0.0,eV,,,,,,,
Mg$_{3}$V$_{6}$(FeO$_{6}$)$_{4}$,2.2285999999999997,eV,,,,,,,
TmVO$_{4}$,2.9583,eV,,,,,,,
NiAgO$_{2}$,0.0,eV,,,,,,,
TiTe$_{2}$,0.0,eV,,,,,,,
Sr$_{3}$Mn$_{2}$O$_{7}$,0,eV,,,,,,,
Co$_{2}$SiO$_{4}$,0.0,eV,,,,,,,
Si(NiO$_{2}$)$_{2}$,3.6153000000000004,eV,,,,,,,
La$_{2}$Ni$_{2}$O$_{5}$,2.0234999999999994,eV,,,,,,,
TiFeO$_{3}$,1.6510999999999996,eV,,,,,,,
K$_{2}$SrV$_{4}$O$_{12}$,3.0368,eV,,,,,,,
HoCrO$_{4}$,0.24740000000000006,eV,,,,,,,
CrAsO$_{4}$,1.9798,eV,,,,,,,
Ba$_{2}$SrWO$_{6}$,3.3505000000000003,eV,,,,,,,
CoO,0.0,eV,,,,,,,
Pr$_{5}$Ge$_{4}$,0.0,eV,,,,,,,
Na$_{2}$Mn$_{3}$O$_{7}$,1.4056999999999997,eV,,,,,,,
MnMoO$_{4}$,2.7361000000000004,eV,,,,,,,
TiMnO$_{3}$,2.334,eV,,,,,,,
NaVO$_{3}$,3.2338000000000005,eV,,,,,,,
BaMg$_{2}$V$_{2}$O$_{8}$,3.5516,eV,,,,,,,
Ba$_{2}$MnWO$_{6}$,2.218,eV,,,,,,,
BaCoO$_{2}$,0.39670000000000005,eV,,,,,,,
Na$_{3}$Co$_{2}$SbO$_{6}$,1.9080000000000004,eV,,,,,,,
Ba$_{5}$V$_{5}$O$_{14}$,0.07299999999999995,eV,,,,,,,
UCoO$_{4}$,1.4455999999999998,eV,,,,,,,
LaMg$_{2}$,0.0,eV,,,,,,,
MnTeMoO$_{6}$,2.375,eV,,,,,,,
CrO,0,eV,,,,,,,
CoWO$_{4}$,2.3735,eV,,,,,,,
Ba$_{2}$UNiO$_{6}$,1.6326999999999998,eV,,,,,,,
VO$_{2}$,0.8765000000000001,eV,,,,,,,
Ba$_{2}$VO$_{4}$,1.5244999999999997,eV,,,,,,,
FeBO$_{3}$,1.6988999999999996,eV,,,,,,,
Ba$_{2}$CaWO$_{6}$,3.3243,eV,,,,,,,
YRh,0.0,eV,,,,,,,
CeNi$_{5}$,0.0,eV,,,,,,,
Sr$_{2}$CaMoO$_{6}$,2.2527,eV,,,,,,,
BaEr$_{2}$NiO$_{5}$,2.264,eV,,,,,,,
Sr$_{2}$FeO$_{4}$,0,eV,,,,,,,
LiCrP$_{2}$O$_{7}$,2.7339,eV,,,,,,,
YbLi(WO$_{4}$)$_{2}$,0.8205,eV,,,,,,,
Na$_{3}$MoNO$_{3}$,3.5654,eV,,,,,,,
LiMnVO$_{4}$,2.2182,eV,,,,,,,
Ca$_{2}$MnWO$_{6}$,2.3282000000000003,eV,,,,,,,
FePO$_{4}$,2.7024,eV,,,,,,,
CeSn$_{3}$,0.0,eV,,,,,,,
BaCrP$_{2}$O$_{7}$,3.0648000000000004,eV,,,,,,,
NaV$_{2}$O$_{5}$,0.5146999999999999,eV,,,,,,,
FeSO$_{4}$,4.1086,eV,,,,,,,
CoTeO$_{3}$,2.1368,eV,,,,,,,
Ca$_{2}$NiWO$_{6}$,3.2941,eV,,,,,,,
Sr$_{2}$CaMoO$_{6}$,2.5544999999999995,eV,,,,,,,
Li$_{4}$MoO$_{5}$,0.0,eV,,,,,,,
BaNd$_{2}$CoO$_{5}$,6.00000000000378E-4,eV,,,,,,,
Sr$_{2}$NiOsO$_{6}$,0.0,eV,,,,,,,
ZnAg,0.0,eV,,,,,,,
MgCrO$_{4}$,2.4743999999999997,eV,,,,,,,
TbVO$_{4}$,2.9828,eV,,,,,,,
BaSr$_{2}$Mn$_{2}$(Si$_{2}$O$_{7}$)$_{2}$,1.6195999999999997,eV,,,,,,,
Rb$_{2}$LiVO$_{4}$,3.965,eV,,,,,,,
Ca$_{3}$Mn$_{2}$O$_{7}$,0,eV,,,,,,,
Na$_{4}$W(NO)$_{2}$,1.9524000000000001,eV,,,,,,,
NdCrO$_{4}$,0.2471000000000001,eV,,,,,,,
Sr$_{2}$FeMoO$_{6}$,0,eV,,,,,,,
CoO,0.7120000000000002,eV,,,,,,,
ErPt$_{3}$,0.0,eV,,,,,,,
KNaFe(Si$_{2}$O$_{5}$)$_{2}$,2.9975,eV,,,,,,,
LiMnBO$_{3}$,2.5635999999999997,eV,,,,,,,
HgWO$_{4}$,2.2798999999999996,eV,,,,,,,
YVO$_{4}$,2.9705,eV,,,,,,,
CaCrP$_{2}$O$_{7}$,2.9342,eV,,,,,,,
Ni(PO$_{3}$)$_{2}$,4.4417,eV,,,,,,,
TbFe$_{3}$(BO$_{3}$)$_{4}$,2.3623,eV,,,,,,,
K$_{2}$Mn(SeO$_{3}$)$_{2}$,3.6293,eV,,,,,,,
BaNiO$_{3}$,1.4691999999999998,eV,,,,,,,
Mg$_{2}$Mo$_{3}$O$_{8}$,0.002100000000000435,eV,,,,,,,
YGa$_{2}$,0.0,eV,,,,,,,
K$_{3}$MnO$_{4}$,1.9806000000000001,eV,,,,,,,
K$_{6}$Co$_{2}$O$_{7}$,1.0823,eV,,,,,,,
Mn$_{2}$V$_{2}$O$_{7}$,1.204,eV,,,,,,,
BaCo$_{2}$(AsO$_{4}$)$_{2}$,2.1212000000000004,eV,,,,,,,
Rb$_{2}$W$_{2}$O$_{7}$,2.423,eV,,,,,,,
Ca$_{4}$Al$_{6}$WO$_{16}$,3.8914999999999997,eV,,,,,,,
CrPbO$_{4}$,2.0326000000000004,eV,,,,,,,
NiCO$_{3}$,3.4031000000000002,eV,,,,,,,
K$_{2}$Mn$_{2}$O$_{3}$,0.4197000000000002,eV,,,,,,,
NaNiO$_{2}$,0.5083000000000002,eV,,,,,,,
Fe$_{2}$B,0.0,eV,,,,,,,
BaVO$_{3}$,0,eV,,,,,,,
BaYCo$_{4}$O$_{7}$,0.19620000000000015,eV,,,,,,,
Lu$_{2}$Mn$_{2}$O$_{7}$,1.0081000000000002,eV,,,,,,,
Ba(FeO$_{2}$)$_{2}$,1.7429000000000001,eV,,,,,,,
CrHgO$_{4}$,1.9257,eV,,,,,,,
BaMnO$_{3}$,1.9175,eV,,,,,,,
LaMnO$_{3}$,0.0,eV,,,,,,,
Mn$_{3}$WO$_{6}$,2.0382000000000002,eV,,,,,,,
Ca$_{2}$PdWO$_{6}$,0.0,eV,,,,,,,
YbSb,0.0,eV,,,,,,,
Ca$_{2}$CoWO$_{6}$,1.9242999999999997,eV,,,,,,,
LaVO$_{4}$,3.1222000000000003,eV,,,,,,,
SrWO$_{4}$,4.6571,eV,,,,,,,
BaDy$_{2}$CoO$_{5}$,1.4218000000000002,eV,,,,,,,
BaFe(Si$_{2}$O$_{5}$)$_{2}$,3.6492000000000004,eV,,,,,,,
Sr$_{3}$NiPtO$_{6}$,2.4915999999999996,eV,,,,,,,
Rb$_{2}$NiO$_{2}$,2.7811,eV,,,,,,,
PrVO$_{4}$,3.0298999999999996,eV,,,,,,,
PrNiO$_{3}$,0.0,eV,,,,,,,
Y(FeO$_{2}$)$_{2}$,0.0,eV,,,,,,,
KV$_{3}$O$_{8}$,2.0824,eV,,,,,,,
UMnO$_{4}$,0.9722,eV,,,,,,,
BaMnV$_{2}$(AgO$_{4}$)$_{2}$,2.3708,eV,,,,,,,
MnSe$_{2}$O$_{5}$,2.4927,eV,,,,,,,
La$_{2}$NiRuO$_{6}$,0.0,eV,,,,,,,
CoAgO$_{2}$,1.4273000000000002,eV,,,,,,,
Ba$_{2}$V(SiO$_{4}$)$_{2}$,2.5878999999999994,eV,,,,,,,
FeRh,0.0,eV,,,,,,,
VFeMoO$_{7}$,2.3613999999999997,eV,,,,,,,
BaHo$_{2}$NiO$_{5}$,2.2548000000000004,eV,,,,,,,
Ba$_{2}$CaWO$_{6}$,3.2692,eV,,,,,,,
Li$_{2}$NiO$_{2}$,2.9545000000000003,eV,,,,,,,
VO,1.1025,eV,,,,,,,
Mn$_{3}$(BO$_{3}$)$_{2}$,2.0333,eV,,,,,,,
Na$_{2}$ZrCo(P$_{2}$O$_{7}$)$_{2}$,3.0646000000000004,eV,,,,,,,
Ba$_{3}$Mn$_{2}$O$_{8}$,1.5797,eV,,,,,,,
K$_{2}$Co(SeO$_{3}$)$_{2}$,1.2319,eV,,,,,,,
ZrCr$_{2}$,0.0,eV,,,,,,,
SrNiO$_{2}$,1.7349999999999999,eV,,,,,,,
Nd$_{2}$NiO$_{4}$,0.5716999999999999,eV,,,,,,,
Y$_{2}$MnNiO$_{6}$,1.7801999999999998,eV,,,,,,,
CaFe$_{3}$O$_{5}$,1.2761,eV,,,,,,,
BaMnP$_{2}$O$_{7}$,3.8394000000000004,eV,,,,,,,
La$_{4}$Co$_{3}$O$_{10}$,0,eV,,,,,,,
Ba$_{3}$CrO$_{5}$,1.5029000000000003,eV,,,,,,,
CoSO$_{4}$,2.6388,eV,,,,,,,
BaSm$_{2}$NiO$_{5}$,2.1603000000000003,eV,,,,,,,
Ni$_{5}$P$_{4}$,0,eV,,,,,,,
Tb$_{2}$Mo$_{2}$O$_{7}$,0.0,eV,,,,,,,
CaMnO$_{3}$,0.5402,eV,,,,,,,
MgCr$_{2}$O$_{4}$,2.8397,eV,,,,,,,
BaCo$_{2}$Si$_{2}$O$_{7}$,2.7397,eV,,,,,,,
ErVO$_{3}$,1.5712000000000002,eV,,,,,,,
LiLa$_{4}$CoO$_{8}$,0.15639999999999965,eV,,,,,,,