formula,Property Band Gap,Property Band Gap units,Property Band gap,Property Band gap units,Temperature (Property Band gap),Temperature (Property Band gap) units,Property Color,Temperature (Property Color),Temperature (Property Color) units
GdNiO$_{3}$,0.0,eV,,,,,,,
TlCu$_{5}$Se$_{3}$,0.40890000000000004,eV,,,,,,,
Sm$_{3}$Re$_{2}$O$_{9}$,0.09010000000000051,eV,,,,,,,
ZnCdC$_{4}$(SN)$_{4}$,3.4135999999999997,eV,,,,,,,
H$_{13}$S$_{2}$N$_{3}$O$_{8}$,5.0308,eV,,,,,,,
Al(FeO$_{2}$)$_{2}$,0.0,eV,,,,,,,
Zn(InS$_{2}$)$_{2}$,0.13640000000000008,eV,,,,,,,
Nb$_{6}$Co$_{16}$Si$_{7}$,0.0,eV,,,,,,,
Cr$_{6}$Si$_{7}$Ni$_{16}$,0.0,eV,,,,,,,
K$_{2}$Th(PSe$_{3}$)$_{3}$,1.458,eV,,,,,,,
Rb$_{2}$Th(PSe$_{3}$)$_{3}$,1.37,eV,,,,,,,
GaN$_{5}$O$_{14}$,1.2429,eV,,,,,,,
Zr$_{3}$P$_{3}$Pd$_{4}$,0.0,eV,,,,,,,
Rb$_{4}$Zr$_{3}$Te$_{16}$,1.0575,eV,,,,,,,
Fe$_{2}$P$_{2}$H$_{4}$O$_{9}$,3.6173,eV,,,,,,,
CsTiAsO$_{5}$,3.0051,eV,,,,,,,
KGd(WO$_{4}$)$_{2}$,3.2310999999999996,eV,,,,,,,
Rb$_{3}$(FeSe$_{2}$)$_{2}$,0.0,eV,,,,,,,
KAgCO$_{3}$,2.2109,eV,,,,,,,
Tm$_{2}$Ni$_{12}$P$_{7}$,0.0,eV,,,,,,,
Rb$_{3}$Ta$_{2}$S$_{11}$,1.6649000000000003,eV,,,,,,,
CsV$_{3}$(TeO$_{6}$)$_{2}$,2.3111,eV,,,,,,,
Cs$_{2}$NaFe(CN)$_{6}$,0.0,eV,,,,,,,
Bi$_{9}$Rh$_{2}$I$_{3}$,0.6866000000000003,eV,,,,,,,
K$_{2}$LaH$_{4}$N$_{5}$O$_{17}$,3.2722999999999995,eV,,,,,,,
K$_{2}$PrH$_{4}$N$_{5}$O$_{17}$,3.4924999999999997,eV,,,,,,,
Na$_{2}$CN$_{2}$,3.0386999999999995,eV,,,,,,,
MnNb$_{3}$O$_{6}$,0.0,eV,,,,,,,
LaSiO$_{3}$F,4.5981000000000005,eV,,,,,,,
Pr$_{2}$SiTeO$_{4}$,1.7631000000000006,eV,,,,,,,
K$_{3}$FeSe$_{3}$,0.0,eV,,,,,,,
K$_{3}$(FeSe$_{2}$)$_{2}$,0.015200000000000102,eV,,,,,,,
SrHg,0.0,eV,,,,,,,
CeF$_{4}$,2.0999999999999996,eV,,,,,,,
Yb$_{2}$Ni$_{12}$P$_{7}$,0.0,eV,,,,,,,
Ce$_{5}$Ge$_{2}$Rh,0.004099999999999326,eV,,,,,,,
P$_{2}$WO$_{7}$,2.9129,eV,,,,,,,
VPPbO$_{6}$,2.4453,eV,,,,,,,
Cs$_{4}$Ti$_{3}$S$_{14}$,1.2939999999999996,eV,,,,,,,
Rb$_{4}$Hf$_{3}$S$_{14}$,1.9401000000000002,eV,,,,,,,
Rb$_{4}$Zr$_{3}$Se$_{14}$,1.4609,eV,,,,,,,
Np$_{5}$Ge$_{3}$,0.0,eV,,,,,,,
Sc$_{3}$B$_{2}$Rh$_{5}$,0.0,eV,,,,,,,
Sc$_{2}$CrB$_{2}$Rh$_{5}$,0.0,eV,,,,,,,
Sc$_{2}$MnB$_{2}$Rh$_{5}$,0.0,eV,,,,,,,
Sc$_{2}$FeB$_{2}$Rh$_{5}$,0.05600000000000005,eV,,,,,,,
Sc$_{2}$GaB$_{2}$Rh$_{5}$,0.0,eV,,,,,,,
Ti$_{3}$Al$_{2}$NiN,0.0,eV,,,,,,,
CrPbO$_{4}$,1.8705,eV,,,,,,,
Pr$_{5}$Co$_{19}$B$_{6}$,0.0030999999999998806,eV,,,,,,,
Er$_{3}$Si$_{3}$O$_{10}$F,5.097099999999999,eV,,,,,,,
PH$_{7}$CN$_{2}$O$_{5}$,5.4212,eV,,,,,,,
K$_{4}$H$_{6}$C$_{2}$O$_{9}$,4.1658,eV,,,,,,,
Zr$_{11}$Sb$_{18}$,0.056999999999999496,eV,,,,,,,
UTlH(SeO$_{4}$)$_{2}$,2.1660999999999997,eV,,,,,,,
LiV$_{6}$O$_{13}$,0.6324999999999998,eV,,,,,,,
Hg$_{9}$(PO$_{4}$)$_{4}$,1.8736000000000002,eV,,,,,,,
Tl$_{3}$B$_{3}$Se$_{10}$,1.3101000000000003,eV,,,,,,,
Rb$_{4}$H$_{6}$C$_{2}$O$_{9}$,3.9628,eV,,,,,,,
CdAgSb,0.0,eV,,,,,,,
Rb$_{4}$Ti$_{3}$S$_{14}$,1.2236000000000002,eV,,,,,,,
Cs$_{8}$Ta$_{6}$O$_{19}$,3.4757000000000002,eV,,,,,,,
Co(NO$_{3}$)$_{2}$,1.8306,eV,,,,,,,
Ca$_{3}$V$_{2}$O$_{8}$,3.4501,eV,,,,,,,
K$_{2}$LaP$_{2}$Se$_{7}$,1.4926,eV,,,,,,,
K$_{3}$La(PSe$_{4}$)$_{2}$,1.4575,eV,,,,,,,
K$_{2}$LaP$_{2}$S$_{7}$,2.2585,eV,,,,,,,
Sr$_{2}$GeO$_{4}$,4.0205,eV,,,,,,,
Na$_{4}$Al$_{3}$(SiO$_{4}$)$_{3}$,0.2618999999999998,eV,,,,,,,
CrPS$_{4}$,0.6760000000000002,eV,,,,,,,
Cs$_{4}$PbO$_{4}$,1.7688999999999997,eV,,,,,,,
K$_{4}$Nb$_{2}$Si$_{8}$O$_{23}$,3.7939999999999996,eV,,,,,,,
BaCu$_{2}$Ge$_{2}$O$_{7}$,0.02159999999999984,eV,,,,,,,
SrCoO$_{3}$,0.09849999999999959,eV,,,,,,,
TbRh$_{3}$C,0.0,eV,,,,,,,
SbPd$_{2}$,0.017000000000000348,eV,,,,,,,
CaZrO$_{3}$,3.2155,eV,,,,,,,
KMo$_{5}$O$_{13}$,0.02499999999999991,eV,,,,,,,
Hg$_{3}$Se$_{3}$O$_{10}$,1.9291,eV,,,,,,,
CsAl(MoO$_{4}$)$_{2}$,3.8773,eV,,,,,,,
Cd$_{3}$Se$_{3}$O$_{10}$,3.068,eV,,,,,,,
Rb$_{4}$Nb$_{2}$Si$_{8}$O$_{23}$,3.7154,eV,,,,,,,
Ba$_{3}$LiRu$_{2}$O$_{9}$,0.07799999999999985,eV,,,,,,,
Ba$_{3}$NaRu$_{2}$O$_{9}$,0.06269999999999998,eV,,,,,,,
CsAlBP$_{2}$HO$_{9}$,5.2654,eV,,,,,,,
RbAlBP$_{2}$HO$_{9}$,5.2635,eV,,,,,,,
UTe$_{4}$Br$_{5}$,0.0028999999999999027,eV,,,,,,,
YbCuAs$_{2}$,0.0,eV,,,,,,,
Ce$_{3}$Si$_{2}$S$_{8}$Cl,0.0027999999999996916,eV,,,,,,,
Mo$_{2}$NCl$_{7}$,0.0045999999999999375,eV,,,,,,,
Na$_{3}$PSO$_{3}$,3.8960999999999997,eV,,,,,,,
Ca$_{3}$Si$_{2}$Ni$_{3}$,0.0,eV,,,,,,,
Ta$_{2}$Tl$_{4}$Se$_{11}$,1.1078999999999999,eV,,,,,,,
RbZn$_{4}$(BO$_{3}$)$_{3}$,2.7811999999999997,eV,,,,,,,
Sn(Mo$_{2}$O$_{3}$)$_{2}$,0.018799999999999706,eV,,,,,,,
Sb$_{2}$N$_{5}$F$_{11}$,3.9605,eV,,,,,,,
Fe$_{2}$Mo$_{4}$O$_{7}$,0.16769999999999996,eV,,,,,,,
V$_{2}$Ni$_{3}$O$_{8}$,2.5707999999999998,eV,,,,,,,
P$_{2}$Pb$_{3}$O$_{8}$,3.5298000000000003,eV,,,,,,,
Mo$_{3}$Pd$_{2}$N,0.0,eV,,,,,,,
TlNiO$_{3}$,0.0,eV,,,,,,,
FeNiPO$_{5}$,1.9968,eV,,,,,,,
FeCuPO$_{5}$,0.21469999999999967,eV,,,,,,,
Co$_{3}$Ag$_{2}$(P$_{2}$O$_{7}$)$_{2}$,2.1641,eV,,,,,,,
Tb$_{2}$CsAg$_{3}$Se$_{5}$,1.0943999999999998,eV,,,,,,,
TlFeO$_{3}$,0.008999999999999453,eV,,,,,,,
Cs$_{2}$CoSiO$_{4}$,2.7201000000000004,eV,,,,,,,
Lu$_{5}$(Si$_{5}$Ir$_{2}$)$_{2}$,0.0,eV,,,,,,,
HoNiGe,0.0,eV,,,,,,,
YbMgGe,0.0,eV,,,,,,,
CuH$_{8}$C$_{4}$O$_{5}$,0.3773,eV,,,,,,,
PuAl$_{3}$,0.03449999999999953,eV,,,,,,,
Nd$_{2}$Zn$_{15}$Ge$_{2}$,0.0,eV,,,,,,,
Th(TeI)$_{2}$,1.0259,eV,,,,,,,
NaCu$_{4}$(AsO$_{4}$)$_{3}$,0.0,eV,,,,,,,
Cr(MoS$_{2}$)$_{2}$,0.0,eV,,,,,,,
Fe(MoS$_{2}$)$_{2}$,0.0,eV,,,,,,,
Cr$_{2}$(Bi$_{2}$O$_{5}$)$_{3}$,2.3562,eV,,,,,,,
Ba$_{4}$Ca$_{4}$Tl$_{3}$Cu$_{6}$O$_{19}$,0,eV,,,,,,,
Ag$_{4}$HgGe$_{2}$S$_{7}$,0.45219999999999994,eV,,,,,,,
CdAg$_{4}$Ge$_{2}$S$_{7}$,0.6419000000000001,eV,,,,,,,
Ba$_{3}$Nb$_{2}$O$_{8}$,4.499700000000001,eV,,,,,,,
BaYFe$_{2}$O$_{5}$,0.8812999999999995,eV,,,,,,,
Ba$_{3}$LiOs$_{2}$O$_{9}$,0.0,eV,,,,,,,
Ba$_{3}$NaOs$_{2}$O$_{9}$,0.0,eV,,,,,,,
Ba$_{2}$CoSi$_{2}$O$_{7}$,2.9050000000000002,eV,,,,,,,
Si$_{6}$Cl$_{10}$O$_{7}$,5.46,eV,,,,,,,
NaVBP$_{2}$H$_{3}$O$_{10}$,2.1429,eV,,,,,,,
Li$_{2}$ZrF$_{6}$,6.0773,eV,,,,,,,
Cs$_{3}$As,0.0,eV,,,,,,,
MnH$_{10}$SeO$_{9}$,2.774,eV,,,,,,,
Tb$_{2}$H$_{16}$S$_{3}$O$_{20}$,5.373399999999999,eV,,,,,,,
Rb$_{3}$As$_{11}$,1.4693,eV,,,,,,,
SmP$_{4}$HO$_{12}$,5.7384,eV,,,,,,,
Cs$_{5}$Hg$_{19}$,0.0,eV,,,,,,,
Yb$_{2}$PbAu$_{2}$,0.0,eV,,,,,,,
LaCdAu,0.0,eV,,,,,,,
BaNaCe$_{2}$C$_{4}$O$_{12}$F,0.24960000000000004,eV,,,,,,,
KSmP$_{3}$HO$_{10}$,5.4434,eV,,,,,,,
CaV$_{4}$(CuO$_{4}$)$_{3}$,0.0,eV,,,,,,,
Pr$_{4}$(GeS$_{4}$)$_{3}$,1.9961000000000002,eV,,,,,,,
Y$_{2}$H$_{16}$S$_{3}$O$_{20}$,5.3616,eV,,,,,,,
CeMo$_{5}$O$_{8}$,0.001100000000000101,eV,,,,,,,
Na$_{4}$Ca(PO$_{3}$)$_{6}$,5.1972000000000005,eV,,,,,,,
KGdTe$_{4}$,0.005499999999999616,eV,,,,,,,
Ba$_{4}$Na(RuO$_{4}$)$_{3}$,0.0,eV,,,,,,,
HgNO$_{3}$,2.5687,eV,,,,,,,
Nd$_{2}$Mo$_{4}$O$_{15}$,2.5664999999999996,eV,,,,,,,
Sm$_{2}$Mo$_{4}$O$_{15}$,2.5309,eV,,,,,,,
Ba$_{11}$Bi$_{10}$,0.0,eV,,,,,,,
Sr$_{3}$NiRhO$_{6}$,0.0,eV,,,,,,,
YbNaGeO$_{4}$,0.0,eV,,,,,,,
Eu$_{2}$SO$_{6}$,0.0,eV,,,,,,,
Ag$_{2}$F$_{5}$,0.0,eV,,,,,,,
Pr(MnSi)$_{2}$,0.0,eV,,,,,,,
Na$_{2}$B$_{8}$O$_{13}$,5.4478,eV,,,,,,,
CuBi$_{3}$PbS$_{6}$,0.6220999999999997,eV,,,,,,,
Fe$_{2}$O$_{3}$,1.4108999999999998,eV,,,,,,,
NdCuSO,1.6136999999999997,eV,,,,,,,
Co$_{2}$Mo$_{3}$N,0.0,eV,,,,,,,
Ce$_{5}$Co$_{19}$,0.005700000000000038,eV,,,,,,,
Ce$_{5}$Ga$_{3}$,0.0,eV,,,,,,,
Zn$_{2}$P$_{2}$O$_{7}$,3.6266000000000003,eV,,,,,,,
K$_{2}$Cu(CO$_{3}$)$_{2}$,0.6847999999999999,eV,,,,,,,
Cu$_{9}$S$_{5}$,0.1490999999999998,eV,,,,,,,
BaTm$_{2}$NiO$_{5}$,2.1495999999999995,eV,,,,,,,
CsIn$_{3}$,0.0,eV,,,,,,,
Dy$_{5}$Ga$_{3}$,0.0,eV,,,,,,,
KSn,0.7336999999999998,eV,,,,,,,
Na$_{9}$Sn$_{4}$,0.0,eV,,,,,,,
ThTl,0.0,eV,,,,,,,
K$_{2}$MnH$_{4}$(SeO$_{5}$)$_{2}$,2.2545,eV,,,,,,,
CoNiH$_{24}$(SO$_{10}$)$_{2}$,3.2189,eV,,,,,,,
Na$_{6}$TlSb$_{4}$,0.007400000000000073,eV,,,,,,,
Lu$_{7}$Te,0.0,eV,,,,,,,
Dy(SiNi$_{5}$)$_{2}$,0.0,eV,,,,,,,
Ho(SiNi$_{5}$)$_{2}$,0.0,eV,,,,,,,
Tm(SiNi$_{5}$)$_{2}$,0.0,eV,,,,,,,
HoMn$_{2}$O$_{5}$,1.0706000000000002,eV,,,,,,,
HoCoSn$_{2}$,0.0,eV,,,,,,,
Cs$_{2}$MgH$_{12}$(SO$_{7}$)$_{2}$,5.0352,eV,,,,,,,
MnP$_{4}$H$_{16}$(NO$_{8}$)$_{2}$,4.0598,eV,,,,,,,
CuHgSI,0.4445999999999999,eV,,,,,,,
Ba$_{11}$Sb$_{10}$,0.0,eV,,,,,,,
Mg$_{3}$Rh,0.0,eV,,,,,,,
SrV$_{13}$O$_{18}$,0.0,eV,,,,,,,
Sr$_{2}$MnGaO$_{5}$,0.0,eV,,,,,,,
Fe$_{3}$O$_{4}$,0.22619999999999996,eV,,,,,,,
Li$_{3}$ScN$_{2}$,2.2440999999999995,eV,,,,,,,
Gd$_{2}$Zn$_{17}$,0,eV,,,,,,,
V$_{3}$O$_{5}$,0.0015999999999998238,eV,,,,,,,
TlCr$_{3}$S$_{5}$,0.0,eV,,,,,,,
K$_{2}$PaF$_{7}$,3.9802999999999997,eV,,,,,,,
Cs$_{3}$GaSe$_{3}$,2.0806,eV,,,,,,,
Sc$_{5}$Cl$_{8}$,0.0,eV,,,,,,,
Rb$_{2}$NaAl$_{3}$F$_{12}$,7.1465,eV,,,,,,,
CoH$_{12}$(BrO$_{3}$)$_{2}$,2.8243,eV,,,,,,,
NbPO$_{5}$,2.3831,eV,,,,,,,
Mo$_{2}$As$_{3}$,0.0,eV,,,,,,,
Ca$_{2}$B$_{5}$Os$_{3}$,0.005899999999999572,eV,,,,,,,
Ce$_{2}$Zn$_{17}$,0.0,eV,,,,,,,
BaGa$_{2}$(GeO$_{4}$)$_{2}$,3.2617,eV,,,,,,,
Se,1.5703,eV,,,,,,,
Mg(AlCl$_{4}$)$_{2}$,5.1636,eV,,,,,,,
Ga$_{2}$H$_{6}$(SeO$_{4}$)$_{3}$,3.9646999999999997,eV,,,,,,,
Pr$_{5}$Si$_{4}$,0.0,eV,,,,,,,
NdNiO$_{2}$,0.15689999999999937,eV,,,,,,,
Gd$_{2}$Si$_{2}$O$_{7}$,2.7790999999999997,eV,,,,,,,
Hg$_{3}$S$_{2}$ICl,1.5075999999999998,eV,,,,,,,
CsFe$_{2}$S$_{3}$,0.0,eV,,,,,,,
Dy$_{2}$MoO$_{6}$,2.166,eV,,,,,,,
Ho$_{2}$MoO$_{6}$,2.1491000000000002,eV,,,,,,,
MnVSbO$_{6}$,1.1817000000000002,eV,,,,,,,
Na$_{9}$Co$_{2}$O$_{7}$,1.3916000000000002,eV,,,,,,,
CsEr$_{2}$Cu$_{3}$Se$_{5}$,1.5196999999999998,eV,,,,,,,
Sr$_{5}$Cd$_{3}$,0.0,eV,,,,,,,
Sc$_{3}$(Si$_{2}$Ni)$_{2}$,0.0,eV,,,,,,,
MgCo,0.0,eV,,,,,,,
Sc$_{5}$(Co$_{2}$Si$_{5}$)$_{2}$,0.0,eV,,,,,,,
TaSe$_{2}$,0.2527999999999997,eV,,,,,,,
Ca$_{6}$Ag$_{16}$N,0.0,eV,,,,,,,
RbCuC$_{2}$,1.9542000000000002,eV,,,,,,,
Rb$_{2}$U$_{3}$(TeO$_{7}$)$_{2}$,1.8358999999999999,eV,,,,,,,
La$_{9}$(SbO)$_{5}$,0.0,eV,,,,,,,
NaPr$_{2}$RuO$_{6}$,0.4730000000000003,eV,,,,,,,
Ho$_{2}$Te$_{4}$O$_{11}$,3.2288,eV,,,,,,,
Gd$_{2}$Te$_{4}$O$_{11}$,2.4417999999999997,eV,,,,,,,
Co$_{2}$Hg$_{2}$H$_{2}$S$_{2}$O$_{11}$,1.9692,eV,,,,,,,
Bi$_{14}$PdBr$_{16}$,1.1683,eV,,,,,,,
Fe$_{7}$(PO$_{4}$)$_{6}$,1.4674000000000005,eV,,,,,,,
CsNaB$_{4}$H$_{12}$O$_{13}$,4.9524,eV,,,,,,,
SrIn$_{2}$Rh,0.0,eV,,,,,,,
CsPH$_{3}$O$_{4}$F,5.6175,eV,,,,,,,
K$_{3}$Nb$_{2}$AsSe$_{11}$,1.1634,eV,,,,,,,
Cs$_{2}$Si$_{2}$Se$_{5}$,2.3927,eV,,,,,,,
K$_{6}$Co$_{2}$O$_{5}$,0.7547999999999999,eV,,,,,,,
Cu$_{3}$As$_{4}$H$_{18}$C$_{8}$Br$_{3}$(NO$_{2}$)$_{2}$,2.8057000000000003,eV,,,,,,,
Cu$_{3}$As$_{4}$H$_{18}$C$_{8}$I$_{3}$(NO$_{2}$)$_{2}$,2.778,eV,,,,,,,
CsScAs$_{2}$(HO$_{4}$)$_{2}$,3.6849,eV,,,,,,,
Nd$_{3}$Sb$_{5}$Pd$_{6}$,0.0,eV,,,,,,,
Pr$_{3}$Sb$_{5}$Pd$_{6}$,0.0,eV,,,,,,,
Rb$_{2}$Cd$_{3}$H$_{6}$S$_{3}$O$_{16}$,3.2717,eV,,,,,,,
EuAg$_{5}$,0.04139999999999988,eV,,,,,,,
AlRu,0.0,eV,,,,,,,
AsSe,1.3679999999999999,eV,,,,,,,
ThB$_{4}$,0.0,eV,,,,,,,
EuTl,0.0,eV,,,,,,,
Ge$_{3}$Pt$_{2}$,0.0,eV,,,,,,,
NdGe$_{2}$Ir,0.0,eV,,,,,,,
Ge$_{2}$W,0.0,eV,,,,,,,
Hg(SbS$_{2}$)$_{4}$,1.1208999999999998,eV,,,,,,,
Li$_{22}$Si$_{5}$,0.0,eV,,,,,,,
ErB$_{3}$Mo,0.0,eV,,,,,,,
Yb$_{3}$Se$_{4}$,0.0,eV,,,,,,,
AsS,2.0899,eV,,,,,,,
Se,1.3901999999999999,eV,,,,,,,
Pu,0.001200000000000756,eV,,,,,,,
Sc$_{3}$Re$_{2}$Si$_{3}$,0.004000000000000448,eV,,,,,,,
AgAsS$_{2}$,1.5154,eV,,,,,,,
Tl$_{2}$S$_{7}$N$_{8}$,1.2475,eV,,,,,,,
GeS$_{2}$,2.3423000000000003,eV,,,,,,,
VCo$_{3}$,0.0,eV,,,,,,,
Bi$_{3}$Se$_{4}$,0.08789999999999942,eV,,,,,,,
Tl$_{2}$Mo$_{9}$S$_{11}$,0.0,eV,,,,,,,
P$_{4}$O$_{7}$,4.1519,eV,,,,,,,
Tl$_{2}$SnS$_{3}$,0.9423999999999997,eV,,,,,,,
Sr$_{3}$GaSb$_{3}$,0.3397000000000001,eV,,,,,,,
Fe$_{2}$AgS$_{3}$,0.0,eV,,,,,,,
Rb$_{2}$Mo$_{9}$Se$_{10}$,0.0,eV,,,,,,,
P$_{4}$S$_{9}$,2.6953,eV,,,,,,,
GdNi,0.0,eV,,,,,,,
GdCo$_{2}$,0.006099999999999994,eV,,,,,,,
Ta$_{2}$Te$_{3}$,0.0,eV,,,,,,,
SeN,1.8778000000000001,eV,,,,,,,
K$_{2}$B$_{2}$Se$_{7}$,1.6237000000000001,eV,,,,,,,
K$_{2}$Mn(PS$_{3}$)$_{2}$,1.0923000000000003,eV,,,,,,,
GePt,0.0,eV,,,,,,,
KSbSe$_{2}$,1.4444,eV,,,,,,,
Zn$_{2}$In$_{2}$S$_{5}$,0.0,eV,,,,,,,
RbIn$_{3}$S$_{5}$,1.1735000000000002,eV,,,,,,,
Cs$_{2}$AlP$_{3}$O$_{10}$,4.9085,eV,,,,,,,
CoH$_{20}$S$_{2}$(NO$_{7}$)$_{2}$,3.2756,eV,,,,,,,
Fe$_{7}$(AsO$_{4}$)$_{6}$,1.5249,eV,,,,,,,
Ga$_{2}$Te$_{2}$Cl$_{7}$,1.4191,eV,,,,,,,
Ce$_{2}$SiTeO$_{4}$,0.0015000000000000568,eV,,,,,,,
Ce$_{2}$SiSeO$_{4}$,0.0,eV,,,,,,,
Li$_{3}$V$_{6}$O$_{13}$,0.6075999999999997,eV,,,,,,,
Na(RhO$_{2}$)$_{2}$,0.0,eV,,,,,,,
Lu$_{2}$Te$_{4}$O$_{11}$,3.2085,eV,,,,,,,
AlAs(H$_{2}$O$_{3}$)$_{2}$,3.6411999999999995,eV,,,,,,,
Na$_{3}$In$_{2}$Au,0.0,eV,,,,,,,
Na$_{3}$In$_{2}$Ag,0.0,eV,,,,,,,
K$_{4}$Na$_{2}$(Si$_{2}$O$_{5}$)$_{3}$,4.3313,eV,,,,,,,
LaH$_{6}$Au$_{3}$C$_{6}$(N$_{2}$O)$_{3}$,2.1416999999999997,eV,,,,,,,
K$_{2}$CrH$_{2}$Cl$_{5}$O,2.3851,eV,,,,,,,
HI$_{3}$O$_{8}$,2.5131,eV,,,,,,,
Rb$_{2}$RuO$_{4}$,0.5314999999999999,eV,,,,,,,
C$_{2}$Se$_{3}$N$_{2}$,1.9759,eV,,,,,,,
Mg$_{2}$P$_{2}$O$_{7}$,5.3203,eV,,,,,,,
RuC$_{4}$(O$_{2}$F$_{3}$)$_{2}$,0.016199999999999992,eV,,,,,,,
FeH$_{9}$C$_{3}$N$_{7}$O$_{2}$,3.2024,eV,,,,,,,
CsHCO$_{2}$,4.4082,eV,,,,,,,
YbBaCo$_{4}$O$_{7}$,0.34350000000000014,eV,,,,,,,
EuSi$_{6}$,0.011400000000000077,eV,,,,,,,
Er$_{2}$Ni$_{12}$As$_{7}$,0.0,eV,,,,,,,
Na$_{3}$Ca(BO$_{2}$)$_{5}$,4.6521,eV,,,,,,,
CeMnSbO,4.999999999997229E-4,eV,,,,,,,
LaNbO$_{4}$,3.6058999999999997,eV,,,,,,,
Cr$_{2}$(Co$_{7}$B$_{2}$)$_{3}$,0.0,eV,,,,,,,
Co$_{21}$(B$_{3}$Mo)$_{2}$,0.0,eV,,,,,,,
Dy$_{3}$Ni$_{13}$B$_{2}$,0.0,eV,,,,,,,
V$_{8}$C$_{7}$,0.0,eV,,,,,,,
BaY$_{2}$CuO$_{5}$,0.0,eV,,,,,,,
Rh$_{2}$O$_{3}$,0.6193,eV,,,,,,,
TiZn$_{2}$O$_{4}$,2.3068999999999997,eV,,,,,,,
SN,2.3546,eV,,,,,,,
Co$_{21}$(SnB$_{3}$)$_{2}$,0.0,eV,,,,,,,
PH$_{6}$CNO$_{3}$,5.6659,eV,,,,,,,
Ho$_{3}$Ge$_{5}$,0.0,eV,,,,,,,
K$_{2}$(MoSe$_{6}$)$_{3}$,0.8439000000000001,eV,,,,,,,
UCu$_{5}$Sn,0.0037000000000002586,eV,,,,,,,
Ce$_{4}$Co$_{2}$Sn$_{5}$,0.0,eV,,,,,,,
Tb$_{2}$Si$_{5}$Os$_{3}$,0.0,eV,,,,,,,
EuClO,0.0,eV,,,,,,,
Fe$_{23}$B$_{6}$,0.012900000000000134,eV,,,,,,,
FeP(H$_{2}$O$_{3}$)$_{2}$,2.7248,eV,,,,,,,
FeP(H$_{2}$O$_{3}$)$_{2}$,2.5976,eV,,,,,,,
EuDyCuS$_{3}$,0.062100000000000044,eV,,,,,,,
Mo(PO$_{3}$)$_{3}$,4.2134,eV,,,,,,,
Sr$_{2}$TmRuO$_{6}$,0.1349999999999998,eV,,,,,,,
Sn(CO$_{2}$)$_{2}$,2.6109,eV,,,,,,,
Fe$_{2}$PH$_{2}$CO$_{7}$,2.4337,eV,,,,,,,
CsAgCl$_{2}$,2.3368,eV,,,,,,,
PuAl$_{4}$,0.0,eV,,,,,,,
CePt$_{5}$,0.0,eV,,,,,,,
GdAg,0.0,eV,,,,,,,
Rb$_{8}$Tl$_{11}$,0.0,eV,,,,,,,
H$_{8}$C$_{3}$(NO)$_{3}$,3.0245,eV,,,,,,,
Ba$_{2}$H$_{14}$C$_{4}$O$_{15}$,3.5252999999999997,eV,,,,,,,
MgH$_{6}$(CO$_{3}$)$_{2}$,4.8736,eV,,,,,,,
FeH$_{6}$(CO$_{3}$)$_{2}$,3.4333,eV,,,,,,,
Li$_{14}$Cr$_{2}$N$_{8}$O,2.4159999999999995,eV,,,,,,,
Na$_{2}$NiH$_{8}$(SO$_{6}$)$_{2}$,4.4706,eV,,,,,,,
ZrNCl,1.7315999999999998,eV,,,,,,,
Fe$_{7}$S$_{8}$,0.0,eV,,,,,,,
EuTl(MoO$_{4}$)$_{2}$,0.023199999999999887,eV,,,,,,,
Fe$_{2}$CoAs$_{2}$(H$_{5}$O$_{7}$)$_{2}$,1.6487,eV,,,,,,,
YCuPbS$_{3}$,1.5852000000000004,eV,,,,,,,
La$_{5}$NiPb$_{3}$,0.0,eV,,,,,,,
Ce$_{3}$CuSnSe$_{7}$,0.0,eV,,,,,,,
Cu$_{2}$Te$_{2}$Br$_{2}$O$_{5}$,0.0,eV,,,,,,,
RbGd(WO$_{4}$)$_{2}$,3.2401999999999997,eV,,,,,,,
AsS,1.9426,eV,,,,,,,
GaTe,1.0066000000000002,eV,,,,,,,
K$_{2}$BeH$_{4}$(SeO$_{5}$)$_{2}$,3.6123,eV,,,,,,,
SiO$_{2}$,5.5103,eV,,,,,,,
Zr$_{5}$SiSb$_{3}$,0.0,eV,,,,,,,
UPt,0.0,eV,,,,,,,
Cs$_{3}$B$_{12}$H$_{12}$Br,4.7562,eV,,,,,,,
Ce$_{3}$(AgSn)$_{4}$,2.0000000000042206E-4,eV,,,,,,,
Sc$_{2}$PbSe$_{4}$,1.2338,eV,,,,,,,
Dy$_{5}$Si$_{4}$,0.0,eV,,,,,,,
Ho$_{5}$Si$_{4}$,0.0,eV,,,,,,,
Mn$_{23}$C$_{6}$,0.002400000000000624,eV,,,,,,,
Gd$_{2}$SiO$_{5}$,3.0252000000000003,eV,,,,,,,
Ba$_{3}$Lu$_{4}$O$_{9}$,3.1681000000000004,eV,,,,,,,
Zn$_{3}$(BO$_{3}$)$_{2}$,2.6968,eV,,,,,,,
Ba$_{14}$Na$_{17}$CaN$_{6}$,0.00749999999999984,eV,,,,,,,
Rb$_{2}$SrV$_{4}$O$_{12}$,2.7935999999999996,eV,,,,,,,
TlSbAu,0.0,eV,,,,,,,
In$_{2}$Si$_{2}$Pb$_{2}$O$_{9}$,3.3467000000000002,eV,,,,,,,
KMnP$_{3}$HO$_{10}$,0.7785000000000001,eV,,,,,,,
MgB$_{2}$P$_{2}$H$_{8}$O$_{13}$,5.5984,eV,,,,,,,
V$_{2}$O$_{5}$,1.396,eV,,,,,,,
AsS,2.0204,eV,,,,,,,
Na$_{2}$RuO$_{4}$,0.0,eV,,,,,,,
Mg$_{9}$Si$_{5}$,0.0,eV,,,,,,,
CeNiSnH$_{2}$,0.0,eV,,,,,,,
Zn$_{3}$Co$_{2}$(CN)$_{12}$,4.3247,eV,,,,,,,
Ca$_{7}$NbSi$_{4}$O$_{17}$F,3.5274,eV,,,,,,,
Na$_{2}$NiH$_{12}$(SO$_{7}$)$_{2}$,4.8423,eV,,,,,,,
YMn$_{2}$O$_{5}$,1.0726,eV,,,,,,,
LiAl(SiO$_{3}$)$_{2}$,5.303800000000001,eV,,,,,,,
Mn$_{2}$O$_{3}$,0,eV,,,,,,,
Nd$_{12}$Ni$_{6}$Sn,0.0,eV,,,,,,,
Ce$_{3}$(CuSn)$_{4}$,0.0,eV,,,,,,,
YbSrSi$_{4}$N$_{7}$,0.0,eV,,,,,,,
Rb$_{2}$BeH$_{4}$(SO$_{5}$)$_{2}$,5.0725,eV,,,,,,,
SrCrO$_{4}$,2.8734,eV,,,,,,,
La$_{3}$AgSnS$_{7}$,1.9474,eV,,,,,,,
LaCoO$_{3}$,0.0,eV,,,,,,,
ZnAu$_{2}$(CN)$_{4}$,2.7763,eV,,,,,,,
BaIrO$_{3}$,0.0,eV,,,,,,,
Tb(SiOs)$_{2}$,0.0,eV,,,,,,,
ZrPbO$_{3}$,2.7758000000000003,eV,,,,,,,
Mn$_{2}$ZnH$_{12}$(NO$_{2}$)$_{4}$,1.4958999999999998,eV,,,,,,,
FeH$_{12}$Pt(ClO)$_{6}$,1.5113,eV,,,,,,,
K$_{2}$Co$_{3}$H$_{6}$S$_{3}$O$_{16}$,2.857,eV,,,,,,,
TiAl$_{3}$,0.0,eV,,,,,,,
NaGe$_{2}$(PO$_{4}$)$_{3}$,3.832,eV,,,,,,,
LaFeO$_{3}$,1.3628999999999998,eV,,,,,,,
KNa$_{2}$LiTi$_{2}$Fe$_{2}$(SiO$_{3}$)$_{8}$,2.0629000000000004,eV,,,,,,,
MnGaH$_{4}$O$_{2}$F$_{5}$,3.4119,eV,,,,,,,
Eu$_{2}$(Ga$_{3}$Ir)$_{3}$,0.030999999999999694,eV,,,,,,,
Bi$_{2}$B$_{8}$O$_{15}$,4.3762,eV,,,,,,,
LiFeAsO$_{4}$,2.0793000000000004,eV,,,,,,,
TbMg$_{2}$Cu$_{9}$,0.0,eV,,,,,,,
CeMg$_{2}$Cu$_{9}$,0.0,eV,,,,,,,
Ba$_{3}$ZnIr$_{2}$O$_{9}$,0.0,eV,,,,,,,
ZnCdC$_{4}$(SeN)$_{4}$,3.0604999999999998,eV,,,,,,,
CdHgC$_{4}$(SeN)$_{4}$,2.2447999999999997,eV,,,,,,,
Cs$_{2}$CuH$_{12}$(SO$_{7}$)$_{2}$,0.6475000000000001,eV,,,,,,,
YbCsCoSe$_{3}$,0.0,eV,,,,,,,
Cs$_{2}$NaHoCl$_{6}$,5.2906,eV,,,,,,,
CaZn$_{3}$Ni$_{2}$,0.0,eV,,,,,,,
NiP$_{2}$(H$_{4}$O$_{5}$)$_{2}$,4.3828000000000005,eV,,,,,,,
Eu(TmSe$_{2}$)$_{2}$,0.3281999999999998,eV,,,,,,,
SnSO$_{4}$,4.1208,eV,,,,,,,
VCuAgO$_{4}$,0.05030000000000001,eV,,,,,,,
KNb$_{2}$PS$_{10}$,1.4962,eV,,,,,,,
K$_{3}$Nd(PS$_{4}$)$_{2}$,2.4434,eV,,,,,,,
VBiPbO$_{5}$,2.5209,eV,,,,,,,
LaFePO,0.27059999999999995,eV,,,,,,,
FeHO$_{2}$,1.9833999999999996,eV,,,,,,,
Gd(CoSi)$_{2}$,0.012699999999999712,eV,,,,,,,
Gd(FeSi)$_{2}$,0.011700000000000266,eV,,,,,,,
Gd(CoGe)$_{2}$,0.006800000000000139,eV,,,,,,,
DyGa$_{3}$Ni$_{2}$,0.0,eV,,,,,,,
Nb$_{6}$Fe$_{16}$Si$_{7}$,0.0,eV,,,,,,,
Ta$_{6}$Fe$_{16}$Si$_{7}$,0.0,eV,,,,,,,
Zr$_{5}$Sn$_{4}$,0.0,eV,,,,,,,
ZnS,2.0396,eV,,,,,,,
Dy$_{12}$(MnC$_{3}$)$_{5}$,0.0,eV,,,,,,,
GdNi$_{2}$,0.0,eV,,,,,,,
Cs$_{2}$Pd(IBr$_{2}$)$_{2}$,0.6798000000000001,eV,,,,,,,
Tl$_{2}$TeO$_{3}$,1.9408000000000003,eV,,,,,,,
La$_{2}$TeI$_{2}$,0.0,eV,,,,,,,
MnHgC$_{4}$(SeN)$_{4}$,1.7339,eV,,,,,,,
NdH$_{18}$C$_{3}$S$_{3}$(O$_{2}$F)$_{9}$,6.0476,eV,,,,,,,
Ce$_{3}$S$_{3}$N,9.00000000000567E-4,eV,,,,,,,
Ba$_{3}$Zn$_{6}$Si$_{4}$TeO$_{20}$,2.6364000000000005,eV,,,,,,,
KDy(PO$_{3}$)$_{4}$,5.4718,eV,,,,,,,
TePbO$_{3}$,3.0439000000000003,eV,,,,,,,
Ga$_{2}$Te$_{3}$(HO$_{2}$)$_{6}$,3.7626999999999997,eV,,,,,,,
ScP(H$_{2}$O$_{3}$)$_{2}$,4.8637999999999995,eV,,,,,,,
BaLiAlF$_{6}$,7.7015,eV,,,,,,,
Tl$_{2}$CO$_{3}$,2.9022000000000006,eV,,,,,,,
CsScP$_{2}$(HO$_{4}$)$_{2}$,4.8328999999999995,eV,,,,,,,
KNaSi$_{4}$CuO$_{10}$,0.8046000000000002,eV,,,,,,,
K$_{2}$FeH$_{12}$(SO$_{7}$)$_{2}$,4.3204,eV,,,,,,,
Lu$_{5}$Sb$_{3}$,0.0,eV,,,,,,,
Tm$_{5}$Sb$_{3}$,0.0,eV,,,,,,,
Mg$_{7}$As$_{6}$(HO$_{6}$)$_{4}$,2.9891000000000005,eV,,,,,,,
Co(CO)$_{4}$,0.0,eV,,,,,,,
Na$_{2}$LiFeO$_{4}$,0.0,eV,,,,,,,
Fe$_{5}$O$_{8}$,0.0,eV,,,,,,,
La$_{4}$NiO$_{8}$,0.8680000000000003,eV,,,,,,,
NiO$_{2}$,1.3913,eV,,,,,,,
MnAsO$_{4}$,0.07269999999999999,eV,,,,,,,
BaTeO$_{3}$,2.7125,eV,,,,,,,
LiCoSiO$_{4}$,1.3978,eV,,,,,,,
V$_{2}$O$_{5}$,2.3728,eV,,,,,,,
LiMn$_{2}$NiO$_{6}$,1.3418,eV,,,,,,,
VAsO$_{5}$,2.1315000000000004,eV,,,,,,,
Pr$_{3}$RuO$_{7}$,0.4142000000000001,eV,,,,,,,
Y$_{2}$Fe$_{14}$B,0.0,eV,,,,,,,
FeCo$_{2}$Si,0,eV,,,,,,,
TmBRh$_{3}$,0.0,eV,,,,,,,
Th$_{2}$Ru$_{6}$C$_{5}$,0.0,eV,,,,,,,
Ti$_{3}$Ir,0.0,eV,,,,,,,
AlPO$_{4}$,5.612,eV,,,,,,,
Nb$_{2}$SnC,0.0,eV,,,,,,,
Y$_{3}$Ga$_{5}$O$_{12}$,3.3529000000000004,eV,,,,,,,
Li$_{2}$PrO$_{3}$,0.0,eV,,,,,,,
Sm$_{3}$OsO$_{7}$,0.0,eV,,,,,,,
Pr$_{3}$SbO$_{7}$,2.7215,eV,,,,,,,
Na$_{2}$Ti$_{6}$O$_{13}$,2.9166999999999996,eV,,,,,,,
K$_{2}$ZrF$_{6}$,5.5342,eV,,,,,,,
Er(FeGe)$_{2}$,0.0,eV,,,,,,,
Ce(SiCu)$_{2}$,0,eV,,,,,,,
LiIO$_{3}$,0.0,eV,,,,,,,
NdTe$_{2}$ClO$_{5}$,0.24799999999999933,eV,,,,,,,