formula,Property Band Gap,Property Band Gap units,Property Band gap,Property Band gap units,Temperature (Property Band gap),Temperature (Property Band gap) units,Property Color,Temperature (Property Color),Temperature (Property Color) units
Ba$_{6}$Nd$_{2}$Ti$_{4}$O$_{17}$,2.6842000000000006,eV,,,,,,,
Ba$_{6}$Y$_{2}$Ti$_{4}$O$_{17}$,2.6451,eV,,,,,,,
Yb$_{2}$Cu$_{4}$As$_{3}$,0.03440000000000065,eV,,,,,,,
Co$_{2}$Ge,0.0,eV,,,,,,,
YbAu$_{2}$,0.0,eV,,,,,,,
PrCuS$_{2}$,1.0668000000000006,eV,,,,,,,
Ti$_{5}$Sb$_{2}$Rh,0.0,eV,,,,,,,
K$_{2}$NdP$_{2}$S$_{7}$,2.3543,eV,,,,,,,
SrLi$_{2}$Ti$_{6}$O$_{14}$,2.8389000000000006,eV,,,,,,,
K$_{2}$ZnP$_{2}$O$_{7}$,4.129,eV,,,,,,,
Li$_{6}$Gd(BO$_{3}$)$_{3}$,3.0808,eV,,,,,,,
MnPt,0.0,eV,,,,,,,
Pr$_{2}$O$_{3}$,3.6593000000000004,eV,,,,,,,
YbSi$_{2}$,0.0,eV,,,,,,,
Pr$_{2}$B$_{5}$,0.0,eV,,,,,,,
Al$_{6}$Tc,0.0,eV,,,,,,,
Al$_{12}$Tc,0.0,eV,,,,,,,
CaS,2.3779999999999997,eV,,,,,,,
ThAl$_{2}$,0.0,eV,,,,,,,
TmAl,0.0,eV,,,,,,,
Al$_{10}$V,0.0,eV,,,,,,,
Y$_{3}$Al$_{2}$,0.0,eV,,,,,,,
Zr$_{5}$Al$_{3}$,0.0,eV,,,,,,,
ScP,0.0,eV,,,,,,,
Tb$_{5}$Ge$_{4}$,0.0,eV,,,,,,,
YP,0.0,eV,,,,,,,
YAs,0.0,eV,,,,,,,
Sc$_{2}$GaC,0.0,eV,,,,,,,
SmNiAs,0.0,eV,,,,,,,
CrInCo$_{2}$,0.0024999999999995026,eV,,,,,,,
Na$_{2}$BeB$_{2}$O$_{5}$,4.7145,eV,,,,,,,
PrSe,0.0,eV,,,,,,,
TiGePd,0.0,eV,,,,,,,
TmSnAu,0.0,eV,,,,,,,
BaAgTeF,1.5093999999999999,eV,,,,,,,
Y(Al$_{5}$Fe)$_{2}$,0.0,eV,,,,,,,
ErAgPb,0.0,eV,,,,,,,
LuAgPb,0.0,eV,,,,,,,
Ho$_{3}$Ge$_{4}$,0.0,eV,,,,,,,
HoCuPb,0.0,eV,,,,,,,
ErCuPb,0.0,eV,,,,,,,
LuCuPb,0.0,eV,,,,,,,
Mg(AlS$_{2}$)$_{2}$,2.0149999999999997,eV,,,,,,,
Ta$_{3}$Ga$_{2}$,0.0,eV,,,,,,,
PrB$_{3}$,0.0,eV,,,,,,,
KYTe$_{2}$,1.3029000000000002,eV,,,,,,,
RbYTe$_{2}$,1.3602000000000003,eV,,,,,,,
Zr$_{2}$Te$_{2}$P,0.0,eV,,,,,,,
LaAl$_{2}$Ag$_{3}$,0.0,eV,,,,,,,
Be$_{2}$Mo,0.0,eV,,,,,,,
Ca$_{2}$Ag$_{7}$,0.0,eV,,,,,,,
MgSe$_{2}$O$_{5}$,3.0276999999999994,eV,,,,,,,
TbK(PO$_{3}$)$_{4}$,5.319,eV,,,,,,,
CdCu$_{2}$,0.0,eV,,,,,,,
NaAlP$_{2}$O$_{7}$,5.2801,eV,,,,,,,
PuRh$_{3}$,0.0036000000000004917,eV,,,,,,,
KBaNbS$_{4}$,2.0731,eV,,,,,,,
Cd$_{2}$Re$_{2}$O$_{7}$,0.0,eV,,,,,,,
Pu(TeO$_{3}$)$_{2}$,0.005499999999999616,eV,,,,,,,
EuSr$_{2}$Nb(CuO$_{4}$)$_{2}$,0,eV,,,,,,,
Gd$_{2}$SiTeO$_{4}$,0.6242999999999999,eV,,,,,,,
La$_{2}$Ni$_{7}$,0.0,eV,,,,,,,
KC$_{10}$,0.6087000000000002,eV,,,,,,,
Ba$_{4}$LiTa$_{3}$O$_{12}$,3.1112999999999995,eV,,,,,,,
Be$_{3}$Cd$_{4}$Si$_{3}$SeO$_{12}$,2.8506,eV,,,,,,,
Sc$_{2}$Re$_{3}$Si$_{4}$,0.0,eV,,,,,,,
CaAlF$_{5}$,7.1355,eV,,,,,,,
Sr$_{2}$GdRuO$_{6}$,0.34609999999999985,eV,,,,,,,
Sc$_{2}$(SO$_{4}$)$_{3}$,4.3566,eV,,,,,,,
GdSO$_{4}$F,3.178,eV,,,,,,,
LiCaPO$_{4}$,5.1799,eV,,,,,,,
Cs$_{2}$Ti(GeO$_{3}$)$_{3}$,2.9514,eV,,,,,,,
Dy$_{3}$(AlNi$_{3}$)$_{2}$,0.0,eV,,,,,,,
Ho$_{2}$Si$_{2}$O$_{7}$,4.616,eV,,,,,,,
La$_{3}$Sn,0.019099999999999895,eV,,,,,,,
BS$_{4}$N$_{4}$F$_{3}$,1.9526,eV,,,,,,,
Rb$_{2}$Cd$_{3}$Se$_{4}$,1.4123,eV,,,,,,,
ZnTeO$_{3}$,3.4996,eV,,,,,,,
Ba$_{3}$PrRu$_{2}$O$_{9}$,0.0,eV,,,,,,,
Gd$_{3}$OsO$_{7}$,0.0,eV,,,,,,,
Yb$_{5}$Sb$_{3}$,0.0,eV,,,,,,,
Li$_{3}$B$_{7}$O$_{12}$,5.6047,eV,,,,,,,
ZrSe$_{3}$,0.39369999999999994,eV,,,,,,,
Sr(Ni$_{2}$B)$_{6}$,0.0,eV,,,,,,,
CaTi$_{4}$(PO$_{4}$)$_{6}$,2.7105,eV,,,,,,,
Zn$_{3}$(AsO$_{4}$)$_{2}$,2.1388000000000003,eV,,,,,,,
RbNa$_{2}$Si$_{17}$,0.09090000000000042,eV,,,,,,,
Nb$_{3}$AgO$_{8}$,1.5603999999999996,eV,,,,,,,
EuNi$_{5}$As$_{3}$,0,eV,,,,,,,
Na$_{3}$WN$_{3}$,1.7679,eV,,,,,,,
ZnAu,0.0,eV,,,,,,,
Nb$_{5}$Ge$_{3}$,0.0,eV,,,,,,,
K$_{3}$Na$_{2}$SnP$_{3}$,0.9637000000000002,eV,,,,,,,
Tl$_{3}$PS$_{4}$,2.2857000000000003,eV,,,,,,,
Ga$_{7}$Ni$_{3}$,0.0,eV,,,,,,,
K$_{3}$Ta$_{3}$Si$_{2}$O$_{13}$,2.9726,eV,,,,,,,
LaMn$_{3}$Ni$_{2}$,0.0,eV,,,,,,,
Ba$_{6}$Ga$_{5}$N,0.0,eV,,,,,,,
Mg$_{13}$Ir$_{3}$,0.0,eV,,,,,,,
Na$_{5}$GeAs$_{3}$,0.4837,eV,,,,,,,
Rb$_{3}$PS$_{4}$,2.7367999999999997,eV,,,,,,,
KNpN$_{3}$O$_{11}$,0.10220000000000007,eV,,,,,,,
BaPd$_{2}$,0.0,eV,,,,,,,
Ba$_{2}$CdSe$_{3}$,1.5746,eV,,,,,,,
K$_{2}$ZrGe$_{2}$O$_{7}$,3.9047,eV,,,,,,,
RbLi$_{2}$Ga$_{2}$(BO$_{3}$)$_{3}$,3.6654999999999998,eV,,,,,,,
Re$_{2}$W$_{3}$C,0.0,eV,,,,,,,
RbEr$_{2}$Cu$_{3}$Se$_{5}$,1.1520000000000001,eV,,,,,,,
Na$_{6}$Sn$_{2}$Se$_{7}$,1.4178999999999997,eV,,,,,,,
HfRe$_{2}$,0.0,eV,,,,,,,
Sr$_{2}$Sb$_{3}$,0.13230000000000075,eV,,,,,,,
C,0.0945999999999998,eV,,,,,,,
SrSbF$_{5}$,4.7617,eV,,,,,,,
Ba$_{2}$CdTe$_{3}$,1.4020000000000001,eV,,,,,,,
Ba$_{2}$MnTe$_{3}$,0.8251999999999997,eV,,,,,,,
RbNpN$_{3}$O$_{11}$,0.12729999999999997,eV,,,,,,,
La$_{2}$Ni$_{3}$,0.0,eV,,,,,,,
Rb$_{2}$S$_{5}$,1.9539000000000002,eV,,,,,,,
Ag$_{2}$SeO$_{3}$,1.7004000000000001,eV,,,,,,,
Y$_{2}$Si$_{5}$Ni$_{3}$,0.0,eV,,,,,,,
BaTiOF$_{4}$,3.3400000000000003,eV,,,,,,,
Ca$_{6}$FeN$_{5}$,0,eV,,,,,,,
Y$_{2}$HfS$_{5}$,1.2263000000000002,eV,,,,,,,
KNa$_{4}$GeAs$_{3}$,0.6355999999999999,eV,,,,,,,
Ba$_{2}$Sb$_{3}$,0.2850999999999999,eV,,,,,,,
TbNaGeO$_{4}$,3.5921,eV,,,,,,,
Pr$_{3}$Si$_{6}$N$_{11}$,2.9903999999999993,eV,,,,,,,
Na$_{3}$GeTe$_{3}$,1.3032000000000001,eV,,,,,,,
Th$_{2}$Co$_{17}$,0.0,eV,,,,,,,
BaLaAlO$_{4}$,4.4343,eV,,,,,,,
Yb$_{2}$Ge,0.03819999999999979,eV,,,,,,,
Sr$_{3}$(GaN$_{2}$)$_{2}$,1.5856000000000003,eV,,,,,,,
LiAlGeO$_{4}$,3.1826,eV,,,,,,,
Y$_{2}$C$_{3}$,0.0,eV,,,,,,,
Na$_{3}$Sc$_{2}$(PO$_{4}$)$_{3}$,4.6575,eV,,,,,,,
LaNi$_{5}$P$_{3}$,0.0,eV,,,,,,,
CdPd,0.0,eV,,,,,,,
Na$_{6}$Si$_{2}$Se$_{7}$,2.1551,eV,,,,,,,
SiO$_{2}$,5.6779,eV,,,,,,,
LaTm(Ge$_{2}$Ir)$_{2}$,0.0,eV,,,,,,,
Ce(Al$_{10}$Co)$_{2}$,0.0,eV,,,,,,,
Lu$_{2}$SiO$_{5}$,4.6922,eV,,,,,,,
TbPt$_{2}$,0.0,eV,,,,,,,
Na$_{2}$Si$_{2}$O$_{5}$,4.4261,eV,,,,,,,
CsErSiS$_{4}$,3.0331,eV,,,,,,,
RbC$_{10}$,0.7232000000000003,eV,,,,,,,
Ti(MnP$_{6}$)$_{2}$,0.001200000000000756,eV,,,,,,,
Ba$_{3}$MgSb$_{2}$O$_{9}$,2.6494,eV,,,,,,,
SrSn,0.0,eV,,,,,,,
Rb$_{2}$B$_{4}$O$_{7}$,4.594,eV,,,,,,,
Sm$_{5}$Si$_{3}$O$_{13}$,0.0,eV,,,,,,,
Sr$_{3}$MgRhO$_{6}$,0.0,eV,,,,,,,
SrCu$_{2}$SnS$_{4}$,0.3978999999999999,eV,,,,,,,
K$_{5}$SnAs$_{3}$,0.5394000000000001,eV,,,,,,,
AlCr$_{2}$,0.007200000000000095,eV,,,,,,,
Ba$_{10}$P$_{6}$SO$_{24}$,3.188,eV,,,,,,,
NaAg$_{3}$S$_{2}$,0.9283999999999999,eV,,,,,,,
Er$_{2}$SiO$_{5}$,4.6496,eV,,,,,,,
Sm$_{3}$Si$_{6}$N$_{11}$,3.0112999999999994,eV,,,,,,,
Li$_{3}$GaSiO$_{5}$,3.6429,eV,,,,,,,
Ba$_{2}$Nb$_{6}$Te$_{2}$O$_{21}$,2.1563,eV,,,,,,,
Cr,0.0,eV,,,,,,,
HoCd,0.0,eV,,,,,,,
AlN,3.306099999999999,eV,,,,,,,
UOF$_{4}$,1.9952999999999999,eV,,,,,,,
CaTeO$_{3}$,3.2937999999999996,eV,,,,,,,
Ba$_{3}$Te$_{2}$O$_{9}$,2.3646,eV,,,,,,,
Sr$_{2}$VN$_{3}$,1.5202999999999998,eV,,,,,,,
Ta$_{5}$Ge$_{3}$,0,eV,,,,,,,
K$_{4}$GeO$_{4}$,2.7837,eV,,,,,,,
Al$_{12}$Co$_{4}$Cu,0.0,eV,,,,,,,
LaRh$_{2}$,0.0,eV,,,,,,,
TiTl$_{2}$(GeO$_{3}$)$_{3}$,2.6548,eV,,,,,,,
UNi$_{2}$,0.0,eV,,,,,,,
Ba$_{2}$NbN$_{3}$,1.9579000000000004,eV,,,,,,,
Sr$_{3}$Y(BO$_{3}$)$_{3}$,4.4201999999999995,eV,,,,,,,
RbMo$_{6}$Se$_{7}$,0.0,eV,,,,,,,
KAlP$_{2}$O$_{7}$,5.2966999999999995,eV,,,,,,,
CsAlPdF$_{6}$,0.6158,eV,,,,,,,
K$_{3}$Sc(PO$_{4}$)$_{2}$,4.2975,eV,,,,,,,
Tb$_{2}$Si$_{3}$Rh,0.0,eV,,,,,,,
Rb$_{2}$Ti(SiO$_{3}$)$_{3}$,3.1377000000000006,eV,,,,,,,
Tb$_{2}$Tl,0.0,eV,,,,,,,
Sc$_{2}$P$_{7}$Ru$_{12}$,0.00730000000000075,eV,,,,,,,
Tm$_{2}$ZnS$_{4}$,2.38,eV,,,,,,,
Hf$_{3}$Rh$_{5}$,0.0,eV,,,,,,,
Rb$_{2}$WS$_{4}$,1.9936000000000003,eV,,,,,,,
Sb$_{2}$O$_{5}$,0.8138000000000005,eV,,,,,,,
Cs$_{3}$TaS$_{4}$,2.983,eV,,,,,,,
LiZnPO$_{4}$,4.1081,eV,,,,,,,
Sr$_{2}$SnSe$_{3}$F$_{2}$,1.4478999999999997,eV,,,,,,,
K$_{3}$Nb$_{3}$Si$_{2}$O$_{13}$,2.2255000000000003,eV,,,,,,,
NaAlSe$_{2}$,2.2333,eV,,,,,,,
Dy$_{2}$Si$_{2}$O$_{7}$,4.6278,eV,,,,,,,
BaLaCuTe$_{3}$,0.8203000000000005,eV,,,,,,,
Gd$_{2}$Sn$_{2}$O$_{7}$,2.6233999999999997,eV,,,,,,,
Ho$_{2}$SiO$_{5}$,4.7086,eV,,,,,,,
Y$_{2}$TeO$_{6}$,3.0718,eV,,,,,,,
BaN$_{6}$,3.8159,eV,,,,,,,
K$_{2}$YF$_{5}$,6.8081,eV,,,,,,,
YTe,0.0,eV,,,,,,,
Rb$_{2}$Zr$_{3}$OF$_{12}$,5.3336,eV,,,,,,,
KBaPS$_{4}$,2.3898,eV,,,,,,,
EuK$_{3}$(PO$_{4}$)$_{2}$,0.0,eV,,,,,,,
U$_{2}$Ti,0.0,eV,,,,,,,
SrTlPS$_{4}$,2.0933000000000006,eV,,,,,,,
ScSnPd,0.0,eV,,,,,,,
ErSiPd,0.0,eV,,,,,,,
Ge$_{3}$Mo$_{5}$,0,eV,,,,,,,
CsCuSe$_{4}$,1.0932,eV,,,,,,,
VNi$_{3}$,0.0,eV,,,,,,,
In$_{2}$P$_{2}$O$_{7}$,3.6658,eV,,,,,,,
CaNb$_{2}$O$_{6}$,3.6052,eV,,,,,,,
Ba$_{4}$Ir$_{3}$O$_{10}$,0.0,eV,,,,,,,
Sr$_{3}$Ta$_{6}$(Si$_{2}$O$_{13}$)$_{2}$,3.0854999999999997,eV,,,,,,,
Hf$_{9}$V$_{4}$S,0.0,eV,,,,,,,
Er$_{3}$Ge$_{4}$,0.0,eV,,,,,,,
K$_{3}$Ge$_{4}$Au,0.8272999999999999,eV,,,,,,,
Sm$_{2}$Ru$_{2}$O$_{7}$,0.0,eV,,,,,,,
Nd$_{2}$Sn$_{2}$O$_{7}$,2.6641000000000004,eV,,,,,,,
Y$_{3}$Ge$_{5}$,0.0,eV,,,,,,,
SrCu$_{3}$(SnO$_{3}$)$_{4}$,0.45310000000000006,eV,,,,,,,
Cs$_{6}$K$_{3}$AlSb$_{4}$,0.6537000000000002,eV,,,,,,,
Si$_{2}$Os,0.652000000000001,eV,,,,,,,
Pr$_{5}$Ge$_{3}$,0.0,eV,,,,,,,
CsNa$_{3}$Li$_{12}$(GeO$_{4}$)$_{4}$,3.7822999999999998,eV,,,,,,,
TbCs(PO$_{3}$)$_{4}$,5.3063,eV,,,,,,,
Sr$_{3}$(AlN$_{2}$)$_{2}$,1.9055,eV,,,,,,,
CsCd$_{13}$,0.0,eV,,,,,,,
Ba$_{3}$(AlN$_{2}$)$_{2}$,1.5661999999999998,eV,,,,,,,
Ba$_{3}$ZnRu$_{2}$O$_{9}$,0.0,eV,,,,,,,
FeSi$_{2}$,0.6966000000000001,eV,,,,,,,
Er$_{3}$(AlNi$_{3}$)$_{2}$,0.0,eV,,,,,,,
BaGd$_{2}$O$_{4}$,2.7986000000000004,eV,,,,,,,
Ba$_{3}$CuSb$_{2}$O$_{9}$,0,eV,,,,,,,
K$_{2}$S$_{5}$,1.9298999999999997,eV,,,,,,,
Na$_{3}$GaSe$_{3}$,2.0823,eV,,,,,,,
Sr$_{3}$ErRhO$_{6}$,2.192,eV,,,,,,,
Tb$_{2}$BaTe$_{4}$,0.7858999999999998,eV,,,,,,,
Rb$_{3}$SbS$_{4}$,2.0227999999999997,eV,,,,,,,
La$_{3}$AgSnSe$_{7}$,1.2989000000000006,eV,,,,,,,
Ta$_{3}$Co$_{3}$C,0.0,eV,,,,,,,
Rh$_{2}$O$_{3}$,0.5594000000000001,eV,,,,,,,
DyPtF$_{7}$,2.3154000000000003,eV,,,,,,,
K$_{6}$CdO$_{4}$,1.5900999999999998,eV,,,,,,,
NaNbGeO$_{5}$,3.0775,eV,,,,,,,
Cs$_{2}$NaCr(CN)$_{6}$,1.9659,eV,,,,,,,
K$_{2}$B$_{4}$O$_{7}$,4.821,eV,,,,,,,
Be$_{3}$Cd$_{4}$Si$_{3}$TeO$_{12}$,2.8788,eV,,,,,,,
Er$_{3}$Ni$_{7}$B$_{2}$,0.0,eV,,,,,,,
LaF$_{3}$,4.9435,eV,,,,,,,
Tl$_{2}$TeS$_{3}$,1.2603000000000004,eV,,,,,,,
Rh$_{2}$S$_{3}$,0.19459999999999944,eV,,,,,,,
K$_{3}$(Cu$_{4}$S$_{3}$)$_{2}$,0.004399999999999515,eV,,,,,,,
Nb$_{2}$ZnO$_{6}$,3.2874000000000003,eV,,,,,,,
ZrFe$_{2}$,0.0,eV,,,,,,,
Na$_{2}$BeSiO$_{4}$,4.5446,eV,,,,,,,
Ca$_{4}$Si$_{3}$Pd$_{4}$,0.0,eV,,,,,,,
Ca$_{3}$AlAs$_{3}$,0.7296000000000005,eV,,,,,,,
K$_{3}$Nd(PO$_{4}$)$_{2}$,4.919499999999999,eV,,,,,,,
U(Al$_{10}$V)$_{2}$,0.0,eV,,,,,,,
K$_{3}$Ce(PO$_{4}$)$_{2}$,0.3656000000000006,eV,,,,,,,
PuN,0.0,eV,,,,,,,
Sc$_{5}$Ge$_{3}$,0.0,eV,,,,,,,
Ca$_{3}$GeO,0.15500000000000025,eV,,,,,,,
TiAs$_{2}$O$_{7}$,2.7038,eV,,,,,,,
Nd$_{5}$Ge$_{4}$,0.0,eV,,,,,,,
SmRu$_{2}$,0.0,eV,,,,,,,
Tl$_{4}$GeS$_{4}$,1.9009999999999998,eV,,,,,,,
K$_{2}$Li$_{14}$Zr$_{3}$O$_{14}$,4.2801,eV,,,,,,,
CsC$_{10}$,0.7518000000000002,eV,,,,,,,
Nb$_{2}$V$_{4}$Si$_{5}$,0.0,eV,,,,,,,
Cs$_{4}$SnO$_{4}$,2.3406000000000002,eV,,,,,,,
Hf$_{5}$Si$_{4}$,0.0,eV,,,,,,,
Tl$_{3}$GeTe$_{3}$,0.6694,eV,,,,,,,
Zn$_{13}$Fe,0.0,eV,,,,,,,
Rb$_{3}$TaS$_{4}$,2.8458,eV,,,,,,,
Cu(PO$_{3}$)$_{2}$,0.0,eV,,,,,,,
K$_{2}$Ni$_{3}$S$_{4}$,0.7773000000000003,eV,,,,,,,
RbBe$_{3}$ZnF$_{9}$,6.2801,eV,,,,,,,
UAl$_{3}$,0.0,eV,,,,,,,
Nb$_{5}$GaSn$_{2}$,0.0,eV,,,,,,,
KTiP$_{2}$O$_{7}$,0.13399999999999945,eV,,,,,,,
Sm$_{2}$Si$_{2}$O$_{7}$,5.105700000000001,eV,,,,,,,
Ba(Ni$_{2}$B)$_{6}$,0.0,eV,,,,,,,
Gd$_{3}$RuO$_{7}$,0.36370000000000013,eV,,,,,,,
Er$_{2}$Fe$_{17}$,0.0,eV,,,,,,,
RbNa$_{3}$Li$_{12}$(SiO$_{4}$)$_{4}$,4.589,eV,,,,,,,
Rb$_{2}$LiFe(CN)$_{6}$,0.0,eV,,,,,,,
Nb$_{2}$(PO$_{4}$)$_{3}$,0.0,eV,,,,,,,
Pr$_{3}$CuSnSe$_{7}$,1.2305000000000001,eV,,,,,,,
Ba$_{2}$ZnGe$_{2}$S$_{6}$O,2.0929,eV,,,,,,,
Na$_{3}$TaF$_{8}$,4.8575,eV,,,,,,,
K$_{3}$SbO$_{3}$,3.2348,eV,,,,,,,
BaCu$_{2}$GeSe$_{4}$,0.35939999999999994,eV,,,,,,,
TlGaSe$_{2}$,1.3725,eV,,,,,,,
Rb$_{2}$Hf$_{3}$OF$_{12}$,6.2789,eV,,,,,,,
KO$_{3}$,0.6216999999999999,eV,,,,,,,
Zn$_{3}$SiNi$_{2}$,0.0,eV,,,,,,,
BaCu$_{2}$(AsO$_{4}$)$_{2}$,0.0,eV,,,,,,,
Sr$_{2}$CuGe$_{2}$O$_{7}$,0.0,eV,,,,,,,
Lu$_{2}$Cu(B$_{2}$O$_{5}$)$_{2}$,0.6675,eV,,,,,,,
NbCuO$_{3}$,0.9479,eV,,,,,,,
Ba(HoTe$_{2}$)$_{2}$,0.7850000000000001,eV,,,,,,,
SrY$_{2}$O$_{4}$,3.6959000000000004,eV,,,,,,,
SiO$_{2}$,5.7151,eV,,,,,,,
LuRh$_{2}$,0.0,eV,,,,,,,
Cu$_{2}$PO$_{4}$,0.0,eV,,,,,,,
SrTh$_{2}$Se$_{5}$,1.4103000000000003,eV,,,,,,,
K$_{3}$NbSe$_{4}$,1.8249,eV,,,,,,,
TaTe$_{4}$Ir,0.0,eV,,,,,,,
Li$_{2}$ZnSiO$_{4}$,3.7868999999999997,eV,,,,,,,
SmFe$_{2}$,0.0,eV,,,,,,,
Na$_{3}$SiTe$_{3}$,1.9235999999999995,eV,,,,,,,
Na$_{2}$GeF$_{6}$,5.7858,eV,,,,,,,
SrTi$_{4}$(PO$_{4}$)$_{6}$,2.7819,eV,,,,,,,
MnAl$_{6}$,0.0,eV,,,,,,,
BaGe,0.0,eV,,,,,,,
Ba$_{4}$Ru$_{3}$O$_{10}$,0.0,eV,,,,,,,
K$_{2}$Hg$_{3}$(GeSe$_{4}$)$_{2}$,1.0352000000000001,eV,,,,,,,
Tb$_{2}$Si$_{2}$O$_{7}$,4.6357,eV,,,,,,,
LaCo$_{5}$,0.0,eV,,,,,,,
Mg$_{3}$BeAl$_{8}$O$_{16}$,5.1747,eV,,,,,,,
Zr$_{3}$Tl$_{2}$OF$_{12}$,4.257000000000001,eV,,,,,,,
NdCo$_{9}$Si$_{4}$,0.0,eV,,,,,,,
SrCu$_{2}$SnS$_{4}$,0.3982000000000001,eV,,,,,,,
TbCu(BO$_{2}$)$_{5}$,0.7693000000000003,eV,,,,,,,
ZrSnS$_{3}$,0.9949999999999997,eV,,,,,,,
Ba$_{5}$Sn$_{3}$,0.0,eV,,,,,,,
PrS$_{2}$,0.3243999999999998,eV,,,,,,,
Sc$_{5}$Ga$_{3}$,0.0,eV,,,,,,,
Sc$_{2}$Cr$_{4}$Si$_{5}$,0.0,eV,,,,,,,
NpCuSe$_{2}$,0.022800000000000153,eV,,,,,,,
RbAsOF$_{4}$,3.7089,eV,,,,,,,
CaZn$_{5}$,0.0,eV,,,,,,,
RbEr$_{2}$Cu$_{3}$S$_{5}$,1.4910000000000005,eV,,,,,,,
Na$_{3}$In$_{2}$(PO$_{4}$)$_{3}$,3.2115,eV,,,,,,,
BaC$_{2}$,1.6040999999999999,eV,,,,,,,
La$_{2}$TeO$_{6}$,2.9623999999999997,eV,,,,,,,
Sr$_{3}$GdRhO$_{6}$,1.9414000000000002,eV,,,,,,,
NaSmSiO$_{4}$,4.2409,eV,,,,,,,
CsTiP$_{2}$O$_{7}$,0.12650000000000006,eV,,,,,,,
Cs$_{2}$WS$_{4}$,2.2373999999999996,eV,,,,,,,
BaHo$_{2}$O$_{4}$,3.2309,eV,,,,,,,
Th(PRu)$_{2}$,0.1357999999999997,eV,,,,,,,
Ho$_{2}$SiSO$_{4}$,2.6337,eV,,,,,,,
Mn$_{2}$SiSe$_{4}$,0.08139999999999992,eV,,,,,,,
LaSn$_{2}$Rh,0.019099999999999895,eV,,,,,,,
K$_{2}$ErF$_{5}$,6.7986,eV,,,,,,,
K$_{2}$Na$_{3}$TlO$_{4}$,1.3295999999999997,eV,,,,,,,
KNb(PO$_{4}$)$_{2}$,3.1667,eV,,,,,,,
Ba$_{2}$Ca(PdO$_{2}$)$_{3}$,1.1994999999999996,eV,,,,,,,
Y$_{3}$Ge$_{4}$,0.0,eV,,,,,,,
Rb$_{2}$Si$_{3}$SnO$_{9}$,3.7986,eV,,,,,,,
Ni$_{2}$Ge,0,eV,,,,,,,
Yb$_{3}$Cu$_{6}$Sn$_{5}$,0.0,eV,,,,,,,
Pr$_{3}$SiAgSe$_{7}$,1.4427000000000003,eV,,,,,,,
Hf$_{5}$Ge$_{3}$,0.0,eV,,,,,,,
Sm$_{3}$Rh$_{2}$,0.0019999999999997797,eV,,,,,,,
Sr$_{2}$ZnGe$_{2}$O$_{7}$,3.1136999999999997,eV,,,,,,,
NaYGeO$_{4}$,3.6470000000000002,eV,,,,,,,
TmCu(BO$_{2}$)$_{5}$,0.7742999999999998,eV,,,,,,,
SrNi$_{5}$As$_{3}$,0.0,eV,,,,,,,
Ba$_{5}$Sb$_{4}$,0.4347000000000003,eV,,,,,,,
Tl$_{5}$Te$_{3}$,0.0,eV,,,,,,,
Ba$_{2}$TaN$_{3}$,2.0186,eV,,,,,,,
Rb$_{3}$Sn$_{4}$Au,0.5795000000000003,eV,,,,,,,
Yb$_{11}$Sb$_{10}$,0.0,eV,,,,,,,
Y$_{2}$Si$_{2}$O$_{7}$,5.1098,eV,,,,,,,
Au$_{3}$F$_{8}$,0.546,eV,,,,,,,
CsEr$_{3}$Se$_{5}$,1.5437999999999998,eV,,,,,,,
BaPr$_{2}$O$_{4}$,3.0742999999999996,eV,,,,,,,
Ti$_{3}$Rh$_{5}$,0.0,eV,,,,,,,
SmSnF$_{7}$,4.9483999999999995,eV,,,,,,,
GdRh,0.17070000000000007,eV,,,,,,,
SmC$_{10}$,0.0,eV,,,,,,,
TmGa$_{3}$Ru,0.0,eV,,,,,,,
KHfPdF$_{7}$,0.6668,eV,,,,,,,
Mo$_{5}$As$_{4}$,0.0,eV,,,,,,,
NaSr$_{4}$(SbO$_{4}$)$_{3}$,2.0937,eV,,,,,,,
K$_{2}$SmF$_{5}$,6.7046,eV,,,,,,,
Zr$_{4}$Fe$_{4}$Si$_{7}$,0.0,eV,,,,,,,
Na$_{2}$GeF$_{6}$,5.604900000000001,eV,,,,,,,
KSm(PO$_{3}$)$_{4}$,5.2969,eV,,,,,,,
Mg$_{2}$GeS$_{4}$,2.311,eV,,,,,,,
PrPtF$_{7}$,2.4352,eV,,,,,,,
Sr$_{10}$P$_{6}$SO$_{24}$,3.5439999999999996,eV,,,,,,,
Tc$_{3}$P,0.0,eV,,,,,,,
Sm$_{2}$O$_{3}$,3.7443000000000004,eV,,,,,,,
Nd$_{3}$ReO$_{7}$,0.0,eV,,,,,,,
K$_{7}$Ta(SO$_{4}$)$_{6}$,3.6873,eV,,,,,,,
MgF$_{2}$,6.7193,eV,,,,,,,
Lu$_{5}$(Co$_{2}$Si$_{7}$)$_{2}$,0.0,eV,,,,,,,
NaTiP$_{2}$O$_{7}$,0.06989999999999963,eV,,,,,,,
SrGeO$_{3}$,3.4068,eV,,,,,,,
Gd$_{2}$Cu(SeO$_{3}$)$_{4}$,0.5251000000000001,eV,,,,,,,
Hf$_{5}$Sb$_{3}$,0.0,eV,,,,,,,
SrZrSi$_{2}$O$_{7}$,4.7096,eV,,,,,,,
K$_{2}$Te,2.1383,eV,,,,,,,
Ba$_{3}$(SnAs$_{2}$)$_{2}$,0.7525,eV,,,,,,,
Na$_{2}$Al$_{2}$As$_{3}$,1.1771000000000003,eV,,,,,,,
ThCo$_{9}$Si$_{2}$,0.0,eV,,,,,,,
NdS,0.0,eV,,,,,,,
Mg$_{4}$Ta$_{2}$O$_{9}$,4.2059,eV,,,,,,,
Ho$_{2}$Si$_{3}$Rh,0.0,eV,,,,,,,
Ho$_{3}$SiCuS$_{7}$,1.8279999999999994,eV,,,,,,,
NaErGeO$_{4}$,3.6106999999999996,eV,,,,,,,
Tl$_{2}$Fe$_{3}$S$_{4}$,0.0,eV,,,,,,,
CaAl$_{4}$,0.0,eV,,,,,,,
Rb$_{5}$SiAs$_{3}$,0.3756999999999999,eV,,,,,,,
Ba$_{2}$LiGe$_{3}$,0.09699999999999998,eV,,,,,,,
Be$_{3}$Cd$_{4}$Si$_{3}$SO$_{12}$,0.8171999999999999,eV,,,,,,,
RbTiP$_{2}$O$_{7}$,0.10890000000000022,eV,,,,,,,
K$_{7}$Nb(SO$_{4}$)$_{6}$,2.8575,eV,,,,,,,
GdPtF$_{7}$,2.3379000000000003,eV,,,,,,,
Ba(ScTe$_{2}$)$_{2}$,0.43100000000000005,eV,,,,,,,
Sr$_{3}$(GeAs$_{2}$)$_{2}$,0.7808999999999999,eV,,,,,,,
Rb$_{2}$NaCr(CN)$_{6}$,1.8634000000000002,eV,,,,,,,
Zn(AuF$_{4}$)$_{2}$,1.6950000000000003,eV,,,,,,,
Tb$_{2}$Ba$_{4}$Cd$_{3}$S$_{10}$,2.1033000000000004,eV,,,,,,,
Ca$_{10}$P$_{6}$SeO$_{24}$,3.7474999999999996,eV,,,,,,,
Sr$_{2}$TaN$_{3}$,2.4659,eV,,,,,,,
HoSi$_{2}$,0.0,eV,,,,,,,
GeAs$_{2}$,0.7096999999999998,eV,,,,,,,
Nb$_{5}$Pt$_{3}$O,0.0,eV,,,,,,,
ThAs,0.0,eV,,,,,,,
Y$_{3}$(Si$_{3}$Os)$_{4}$,0.0,eV,,,,,,,
Ho$_{2}$Ge$_{5}$Rh$_{3}$,0.0,eV,,,,,,,
B$_{3}$Ru$_{7}$,0.0,eV,,,,,,,
K$_{3}$SbSe$_{3}$,2.2931000000000004,eV,,,,,,,
KAsOF$_{4}$,3.7145,eV,,,,,,,
UHg$_{2}$,0.0,eV,,,,,,,
Cs$_{2}$RuO$_{4}$,0.5834000000000001,eV,,,,,,,
ZnAu$_{3}$,0.0,eV,,,,,,,
CaSiO$_{3}$,4.7326,eV,,,,,,,
Ti$_{2}$Mn$_{4}$Si$_{5}$,0.0,eV,,,,,,,
Ca$_{5}$(GaAs$_{3}$)$_{2}$,0.10360000000000014,eV,,,,,,,
Y$_{2}$TiO$_{5}$,3.2733,eV,,,,,,,
ThB$_{6}$,0.0,eV,,,,,,,
Na$_{2}$UO$_{4}$,2.0732000000000004,eV,,,,,,,
Sr$_{3}$Sc(BO$_{3}$)$_{3}$,4.6354999999999995,eV,,,,,,,
Ca$_{5}$Sb$_{3}$,0.24120000000000008,eV,,,,,,,
Ba$_{5}$P$_{4}$,0.9365000000000001,eV,,,,,,,
Ce$_{2}$(ZnGe$_{2}$)$_{3}$,0.0,eV,,,,,,,
Ag$_{3}$Sn$_{2}$(GeP$_{2}$)$_{3}$,0.24489999999999945,eV,,,,,,,
SmPtF$_{7}$,2.3817,eV,,,,,,,
DyFe$_{2}$,0.0,eV,,,,,,,
Ca$_{6}$MnN$_{5}$,0.7347000000000001,eV,,,,,,,
Yb$_{4}$Ge$_{6}$Ir$_{7}$,0.0,eV,,,,,,,
Gd$_{2}$TeO$_{6}$,2.6902000000000004,eV,,,,,,,
CdS$_{2}$O$_{7}$,4.036099999999999,eV,,,,,,,
Ce$_{2}$Zn$_{2}$Ni$_{5}$,0.01049999999999951,eV,,,,,,,
AgRuF$_{7}$,0.0,eV,,,,,,,
UF$_{5}$,0.0,eV,,,,,,,
Ta$_{5}$Ge$_{3}$,0.0,eV,,,,,,,
Ca(ScS$_{2}$)$_{2}$,1.2884000000000002,eV,,,,,,,
Cu$_{2}$Te$_{3}$O$_{8}$,0.0,eV,,,,,,,
CaCu$_{3}$(GeO$_{3}$)$_{4}$,0.6985000000000001,eV,,,,,,,
UF$_{5}$,0.35019999999999996,eV,,,,,,,
CsNd(PO$_{3}$)$_{4}$,5.3001,eV,,,,,,,
LuIr$_{2}$,0.0,eV,,,,,,,
Ba$_{2}$SiO$_{4}$,4.6289,eV,,,,,,,
K$_{2}$Ti(Si$_{2}$O$_{5}$)$_{3}$,3.4437,eV,,,,,,,
ErRh$_{2}$,0.0,eV,,,,,,,
TmBO$_{3}$,2.3564,eV,,,,,,,
CsReO$_{4}$,4.2585,eV,,,,,,,
SmCo$_{9}$Si$_{2}$,0.0,eV,,,,,,,
Na$_{2}$Cu$_{4}$S$_{3}$,0.3664999999999994,eV,,,,,,,
Er$_{2}$SiSeO$_{4}$,2.5551000000000004,eV,,,,,,,
USO$_{6}$,1.9501000000000002,eV,,,,,,,
Rb$_{3}$SbSe$_{4}$,1.3317,eV,,,,,,,
Y$_{2}$Zn$_{17}$,0.0,eV,,,,,,,
Yb$_{5}$Si$_{3}$SO$_{12}$,0.09480000000000022,eV,,,,,,,
TlSnF$_{7}$,1.8252,eV,,,,,,,
KGaS$_{2}$,2.5331,eV,,,,,,,
HoPtF$_{7}$,2.2952,eV,,,,,,,
Tb$_{6}$Al$_{3}$Si,0.0,eV,,,,,,,
Sm(NiGe)$_{3}$,0.0,eV,,,,,,,
Mg$_{23}$Al$_{30}$,0.0,eV,,,,,,,
TmS,0.0,eV,,,,,,,
SrPrCuSe$_{3}$,1.0198999999999998,eV,,,,,,,
RbNd(PO$_{3}$)$_{4}$,5.3014,eV,,,,,,,
Lu$_{2}$PdO$_{4}$,0.5854000000000004,eV,,,,,,,
Nd$_{3}$OsO$_{7}$,0.0,eV,,,,,,,
Sr$_{3}$AlSb$_{3}$,0.5371000000000006,eV,,,,,,,
YbGa$_{7}$Au$_{3}$,0.0,eV,,,,,,,
Tm$_{2}$O$_{3}$,3.9787,eV,,,,,,,
BaLi(B$_{3}$O$_{5}$)$_{3}$,5.672000000000001,eV,,,,,,,
Lu$_{3}$O$_{2}$F$_{5}$,5.6388,eV,,,,,,,
SrC$_{10}$,0.0,eV,,,,,,,
Sr$_{2}$SnS$_{3}$F$_{2}$,2.0801,eV,,,,,,,
Nb$_{9}$PO$_{25}$,2.1092,eV,,,,,,,
Sr(ScS$_{2}$)$_{2}$,1.3569999999999998,eV,,,,,,,
RbNb(PO$_{4}$)$_{2}$,3.0886,eV,,,,,,,
LaOs$_{2}$,0.0,eV,,,,,,,
La$_{6}$Ni$_{6}$P$_{17}$,0,eV,,,,,,,
Li$_{3}$GaGeO$_{5}$,3.2656,eV,,,,,,,
SrDy$_{2}$CuO$_{5}$,0.0,eV,,,,,,,
CsGaTe$_{2}$,1.503,eV,,,,,,,
SbPd,0.0,eV,,,,,,,
Cu$_{3}$SbS$_{3}$,0.9982999999999995,eV,,,,,,,
SrCdP$_{2}$O$_{7}$,3.7032,eV,,,,,,,
Ca$_{5}$Al$_{6}$O$_{14}$,4.226,eV,,,,,,,
Sc$_{5}$Sn$_{3}$,0.0,eV,,,,,,,
Ba$_{2}$VN$_{3}$,1.3895999999999997,eV,,,,,,,
KSmF$_{4}$,7.1568,eV,,,,,,,
K$_{6}$CdTe$_{4}$,1.6626000000000003,eV,,,,,,,
Er$_{2}$Cu(B$_{2}$O$_{5}$)$_{2}$,0.6619000000000002,eV,,,,,,,
USb,0,eV,,,,,,,
Mg$_{5}$Ga$_{2}$,0.0,eV,,,,,,,
Sr$_{2}$NbN$_{3}$,2.2927999999999997,eV,,,,,,,
Yb$_{2}$SiO$_{5}$,0.0,eV,,,,,,,
Tm$_{2}$SiO$_{5}$,4.591100000000001,eV,,,,,,,
Zr$_{5}$Ge$_{3}$,0.0,eV,,,,,,,