formula,Property Band Gap,Property Band Gap units,Property Band gap,Property Band gap units,Temperature (Property Band gap),Temperature (Property Band gap) units,Property Color,Temperature (Property Color),Temperature (Property Color) units
CsMnBr$_{3}$,1.2909000000000002,eV,,,,,,,
KMnCl$_{3}$,1.3655,eV,,,,,,,
GdClO,2.9892000000000003,eV,,,,,,,
NbSeI,0.0,eV,,,,,,,
ZrIN,1.2218,eV,,,,,,,
PbICl,2.7152,eV,,,,,,,
NaBiO$_{3}$,1.0879,eV,,,,,,,
RbCuCl$_{3}$,0.0,eV,,,,,,,
Sr$_{2}$BrN,1.8455,eV,,,,,,,
CsLiBr$_{2}$,4.1375,eV,,,,,,,
NdClO,4.766400000000001,eV,,,,,,,
Rb$_{2}$SnCl$_{6}$,2.5354,eV,,,,,,,
LaMg$_{3}$,0.0,eV,,,,,,,
Cs$_{2}$PtI$_{6}$,0.6483999999999999,eV,,,,,,,
YCI,0.0,eV,,,,,,,
Ba$_{4}$Cl$_{6}$O,4.3647,eV,,,,,,,
CsCu$_{2}$Cl$_{3}$,1.8237999999999999,eV,,,,,,,
Pb$_{5}$(SI$_{3}$)$_{2}$,1.8132000000000001,eV,,,,,,,
K$_{2}$PdCl$_{6}$,1.2027,eV,,,,,,,
NdBrO,4.4818999999999996,eV,,,,,,,
BaBrF,4.8829,eV,,,,,,,
CCl$_{3}$F,4.8988,eV,,,,,,,
BiBrO,2.2701,eV,,,,,,,
BiOF,3.1226000000000003,eV,,,,,,,
Rb$_{2}$CoCl$_{4}$,0.7331000000000001,eV,,,,,,,
Cs$_{2}$UCl$_{6}$,0.13680000000000003,eV,,,,,,,
SiCl$_{2}$O,5.5476,eV,,,,,,,
AlBiO$_{3}$,1.5859999999999994,eV,,,,,,,
KAs$_{4}$BrO$_{6}$,2.7254,eV,,,,,,,
BiPbClO$_{2}$,2.068,eV,,,,,,,
Ba$_{2}$Cu$_{3}$(ClO$_{2}$)$_{2}$,0.0,eV,,,,,,,
ErSeClO$_{3}$,4.3487,eV,,,,,,,
Mg$_{3}$B$_{7}$ClO$_{13}$,5.9272,eV,,,,,,,
SrTa$_{2}$Bi$_{2}$O$_{9}$,2.4928,eV,,,,,,,
Tm$_{2}$S$_{3}$,1.1833000000000005,eV,,,,,,,
La$_{3}$Si$_{2}$S$_{8}$I,2.516,eV,,,,,,,
Ba$_{2}$BiSbO$_{6}$,1.7763,eV,,,,,,,
Ba$_{2}$TaBiO$_{6}$,2.5855,eV,,,,,,,
Sr$_{2}$NdBiO$_{6}$,1.7018,eV,,,,,,,
Ca$_{3}$Cu$_{2}$(ClO$_{2}$)$_{2}$,0.0,eV,,,,,,,
LuSeClO$_{3}$,4.3255,eV,,,,,,,
K$_{2}$Os(Cl$_{2}$O)$_{2}$,1.7286000000000001,eV,,,,,,,
ReNClF$_{5}$,1.7905000000000002,eV,,,,,,,
Cs$_{2}$Pd(IBr$_{2}$)$_{2}$,0.6891,eV,,,,,,,
CdO$_{2}$,1.2535000000000003,eV,,,,,,,
Sr$_{2}$LuBiO$_{6}$,1.9118,eV,,,,,,,
Nb$_{2}$Bi$_{2}$PbO$_{9}$,1.1775000000000002,eV,,,,,,,
Sr$_{2}$Cu(ClO)$_{2}$,0.0,eV,,,,,,,
Pb$_{2}$ClOF,2.5689999999999995,eV,,,,,,,
Cs$_{2}$NaUCl$_{6}$,0.5004,eV,,,,,,,
NbO,0.0,eV,,,,,,,
NaHg$_{2}$IO$_{2}$,1.379,eV,,,,,,,
AsS$_{3}$(ClF$_{2}$)$_{3}$,0.06090000000000001,eV,,,,,,,
CuBiSeO,0.2728999999999999,eV,,,,,,,
CsEr$_{6}$CI$_{12}$,0.2975000000000003,eV,,,,,,,
Cu$_{5}$Se$_{2}$(ClO$_{4}$)$_{2}$,0.0,eV,,,,,,,
Cs$_{2}$NaYCl$_{6}$,5.0866,eV,,,,,,,
Sr$_{5}$P$_{3}$ClO$_{12}$,5.0783,eV,,,,,,,
Li$_{10}$B$_{14}$Cl$_{2}$O$_{25}$,6.425800000000001,eV,,,,,,,
K$_{3}$NaFeCl$_{6}$,0.7837000000000001,eV,,,,,,,
KAs$_{4}$IO$_{6}$,2.3453999999999997,eV,,,,,,,
Ba$_{2}$BiSbO$_{6}$,1.6979000000000006,eV,,,,,,,
Ba$_{2}$Cu$_{3}$(BrO$_{2}$)$_{2}$,0.0,eV,,,,,,,
MgIn,0.0,eV,,,,,,,
Sr$_{2}$BN$_{2}$Cl,2.7508,eV,,,,,,,
Sr$_{2}$Cu$_{3}$(BrO$_{2}$)$_{2}$,0.0,eV,,,,,,,
Ba$_{2}$YBiO$_{6}$,1.8236999999999997,eV,,,,,,,
SbPbClO$_{2}$,1.9094000000000007,eV,,,,,,,
LiPb,0.19650000000000034,eV,,,,,,,
AgHgSI,1.3584,eV,,,,,,,
Sr$_{5}$P$_{3}$BrO$_{12}$,4.9315,eV,,,,,,,
Ca$_{2}$Cu(ClO)$_{2}$,0.0,eV,,,,,,,
TlRe$_{3}$(Se$_{2}$Cl)$_{2}$,1.5063000000000004,eV,,,,,,,
Na$_{4}$Al$_{3}$Si$_{3}$ClO$_{12}$,4.6948,eV,,,,,,,
TlZnSClO$_{4}$,4.357100000000001,eV,,,,,,,
Na$_{4}$Al$_{3}$Si$_{3}$BrO$_{12}$,4.609800000000001,eV,,,,,,,
K$_{4}$Al$_{3}$Si$_{3}$ClO$_{12}$,4.7411,eV,,,,,,,
NaB$_{15}$,0.0,eV,,,,,,,
CS$_{2}$NClO$_{2}$,2.7073,eV,,,,,,,
Na$_{4}$BeAlSi$_{4}$ClO$_{12}$,4.6318,eV,,,,,,,
Bi,0.0,eV,,,,,,,
I,1.03,eV,,,,,,,
Br,1.3877,eV,,,,,,,
Ar,8.567400000000001,eV,,,,,,,
He,17.7667,eV,,,,,,,
He,17.6476,eV,,,,,,,
SrBi$_{3}$,0.0,eV,,,,,,,
TmZn,0.0,eV,,,,,,,
ThBr$_{4}$,2.9258,eV,,,,,,,
NpCl$_{4}$,0.0,eV,,,,,,,
ZrCl$_{2}$,0.8481000000000005,eV,,,,,,,
CsBi$_{2}$,0.0,eV,,,,,,,
Bi$_{2}$Se$_{3}$,0.9558,eV,,,,,,,
PtBr$_{3}$,0.9518000000000001,eV,,,,,,,
NpBr$_{3}$,0.006800000000000139,eV,,,,,,,
TlCl,2.1809,eV,,,,,,,
Pr$_{2}$Br$_{5}$,0.2824,eV,,,,,,,
LaNi$_{5}$,0.0,eV,,,,,,,
IO$_{2}$,1.4524999999999997,eV,,,,,,,
HgI$_{2}$,2.3184,eV,,,,,,,
ReCl$_{3}$,0.9624999999999999,eV,,,,,,,
Nd$_{4}$Bi$_{3}$,0.0,eV,,,,,,,
SbCl$_{5}$,1.8233000000000001,eV,,,,,,,
HgBr,2.2557,eV,,,,,,,
WCl$_{6}$,1.7484,eV,,,,,,,
NiBi$_{3}$,0.0,eV,,,,,,,
Nb$_{2}$C,0.0,eV,,,,,,,
In$_{5}$Bi$_{3}$,0.0,eV,,,,,,,
SrI$_{2}$,3.8415,eV,,,,,,,
SnI$_{4}$,2.0284,eV,,,,,,,
NdCl$_{3}$,4.299799999999999,eV,,,,,,,
BCl$_{3}$,4.7135,eV,,,,,,,
XeF$_{4}$,2.8225,eV,,,,,,,
Sc$_{7}$Cl$_{12}$,0,eV,,,,,,,
La$_{4}$Bi$_{3}$,0.0,eV,,,,,,,
In$_{2}$Bi,0.0,eV,,,,,,,
BI$_{3}$,2.6816,eV,,,,,,,
P$_{2}$Os,0.8149000000000006,eV,,,,,,,
HgI$_{2}$,1.3282999999999998,eV,,,,,,,
KCl,5.027,eV,,,,,,,
LaI$_{2}$,0.0,eV,,,,,,,
Bi$_{2}$O$_{3}$,1.6582000000000003,eV,,,,,,,
U$_{3}$Bi$_{4}$,0.0,eV,,,,,,,
TlI,1.8128000000000002,eV,,,,,,,
BaCl$_{2}$,5.1132,eV,,,,,,,
DyRh,0.0,eV,,,,,,,
BaBi$_{3}$,0.0,eV,,,,,,,
InI,1.3414000000000001,eV,,,,,,,
FeCl$_{3}$,0.0,eV,,,,,,,
MgI$_{2}$,3.6162000000000005,eV,,,,,,,
BiPd,0.0,eV,,,,,,,
ClO$_{2}$,0.964,eV,,,,,,,
UCl$_{3}$,0.0,eV,,,,,,,
SrCl$_{2}$,5.2286,eV,,,,,,,
Tb$_{3}$Ge$_{5}$,0,eV,,,,,,,
MgCl$_{2}$,5.6168,eV,,,,,,,
PrCl$_{3}$,4.3439,eV,,,,,,,
CuBr,0.16990000000000016,eV,,,,,,,
CaCl$_{2}$,5.3949,eV,,,,,,,
ThCl$_{4}$,3.6672,eV,,,,,,,
SnBr$_{4}$,2.7003,eV,,,,,,,
Bi$_{2}$Rh,0.0,eV,,,,,,,
AsI$_{3}$,2.2375000000000003,eV,,,,,,,
CuBr$_{2}$,0.0,eV,,,,,,,
YAl$_{2}$,0.0,eV,,,,,,,
YbCl$_{2}$,5.5411,eV,,,,,,,
PrBr$_{3}$,3.4284,eV,,,,,,,
Li$_{3}$Bi,0.34289999999999976,eV,,,,,,,
TiI$_{3}$,0.0,eV,,,,,,,
BiTe,0.0,eV,,,,,,,
BBr$_{3}$,3.8273,eV,,,,,,,
Nb$_{6}$I$_{11}$,0.2782,eV,,,,,,,
CuBr,0.43020000000000014,eV,,,,,,,
PCl$_{5}$,1.7747,eV,,,,,,,
FeCl$_{2}$,0.03569999999999984,eV,,,,,,,
BeCu,0.0,eV,,,,,,,
PCl$_{3}$,4.0342,eV,,,,,,,
AgBr,0.7306000000000001,eV,,,,,,,
FeBr$_{3}$,0.0,eV,,,,,,,
TmBi,0.0,eV,,,,,,,
UCl$_{4}$,0.0,eV,,,,,,,
BiF$_{3}$,4.6808,eV,,,,,,,
Ta$_{3}$I$_{7}$,0.8864000000000001,eV,,,,,,,
PrCd$_{2}$,0.0,eV,,,,,,,
CoCl$_{2}$,0.15389999999999993,eV,,,,,,,
YBi,0.0,eV,,,,,,,
UI$_{3}$,0.09539999999999971,eV,,,,,,,
ErBi,0.0,eV,,,,,,,
ZrBr$_{3}$,0.0,eV,,,,,,,
UCl$_{6}$,1.5939,eV,,,,,,,
KBr,4.3102,eV,,,,,,,
Ce$_{4}$Bi$_{3}$,0.0,eV,,,,,,,
RbBi$_{2}$,0.0,eV,,,,,,,
UBr$_{3}$,0.0,eV,,,,,,,
BCl,0.9004000000000001,eV,,,,,,,
IF$_{5}$,4.6815,eV,,,,,,,
LiBr,4.9234,eV,,,,,,,
BaI$_{2}$,3.4525000000000006,eV,,,,,,,
I$_{2}$O$_{5}$,2.7173000000000003,eV,,,,,,,
Bi$_{2}$O$_{3}$,2.1865999999999994,eV,,,,,,,
LaBr$_{3}$,2.9248000000000003,eV,,,,,,,
TiI$_{3}$,0.1604000000000001,eV,,,,,,,
GdCl$_{3}$,2.0054,eV,,,,,,,
GeI$_{4}$,1.996,eV,,,,,,,
BeCl$_{2}$,6.3324,eV,,,,,,,
NaI,3.5255,eV,,,,,,,
WCl$_{3}$,0.0,eV,,,,,,,
TiZn$_{16}$,0.0,eV,,,,,,,
Th$_{3}$Bi$_{4}$,0.09229999999999983,eV,,,,,,,
TeI,0.7793000000000001,eV,,,,,,,
Ta$_{2}$Cl$_{5}$,1.2195,eV,,,,,,,
TiCl$_{3}$,0.0,eV,,,,,,,
InCl,2.1862,eV,,,,,,,
NpCl$_{3}$,0.011800000000000033,eV,,,,,,,
KBi$_{2}$,0.0,eV,,,,,,,
AsCl$_{3}$,3.9873,eV,,,,,,,
SbI$_{3}$,2.1446000000000005,eV,,,,,,,
ZrI$_{3}$,0.0,eV,,,,,,,
Sm$_{4}$Bi$_{3}$,0.0,eV,,,,,,,
CeBi,0.0,eV,,,,,,,
CuCl,0.4439000000000002,eV,,,,,,,
AlBr$_{3}$,4.0967,eV,,,,,,,
KCl,4.837999999999999,eV,,,,,,,
PtCl$_{2}$,1.8227000000000002,eV,,,,,,,
PbCl$_{2}$,3.7939,eV,,,,,,,
HgBr$_{2}$,2.5412,eV,,,,,,,
TbCl$_{3}$,3.7957,eV,,,,,,,
RbCl,4.8393,eV,,,,,,,
BrF$_{3}$,2.1576,eV,,,,,,,
RbCl,4.7794,eV,,,,,,,
UO$_{3}$,0.46579999999999977,eV,,,,,,,
Nb$_{2}$Se$_{3}$,0.0,eV,,,,,,,
NdBi,0.0,eV,,,,,,,
BiF$_{3}$,3.9662999999999995,eV,,,,,,,
RbI,3.3455,eV,,,,,,,
RbBr,3.9219999999999997,eV,,,,,,,
Rb$_{3}$Bi,0.0,eV,,,,,,,
EuI$_{2}$,1.3090000000000002,eV,,,,,,,
CuI,0.0,eV,,,,,,,
NbCl$_{5}$,2.2205,eV,,,,,,,
ScCl$_{3}$,3.8723,eV,,,,,,,
B$_{2}$Mo,0.0,eV,,,,,,,
Yb$_{4}$Bi$_{3}$,0.0,eV,,,,,,,
EuBr$_{2}$,1.0457999999999998,eV,,,,,,,
MoBr$_{3}$,0.6926,eV,,,,,,,
Pr$_{4}$Bi$_{3}$,0.0,eV,,,,,,,
IO$_{3}$,1.8978000000000002,eV,,,,,,,
BCl$_{2}$,2.9181,eV,,,,,,,
AsBr$_{3}$,3.1271000000000004,eV,,,,,,,
BiSCl,1.9601000000000002,eV,,,,,,,
RbVCl$_{3}$,0.0,eV,,,,,,,
Ho$_{2}$C$_{3}$,0.0,eV,,,,,,,
Sr$_{4}$Cl$_{6}$O,4.5588999999999995,eV,,,,,,,
BiSBr,2.0287,eV,,,,,,,
Ca$_{4}$Cl$_{6}$O,5.2239,eV,,,,,,,
NdPd$_{3}$,0.0,eV,,,,,,,
NaClO$_{3}$,5.6182,eV,,,,,,,
Si$_{3}$(BiO$_{3}$)$_{4}$,3.8978999999999995,eV,,,,,,,
BiPO$_{4}$,2.0128000000000004,eV,,,,,,,
Hg$_{3}$Cl$_{4}$O,1.4621,eV,,,,,,,
Bi$_{2}$TeO$_{5}$,2.4243,eV,,,,,,,
Ti$_{3}$(BiO$_{3}$)$_{4}$,1.3813000000000004,eV,,,,,,,
CsMnCl$_{3}$,1.4850000000000003,eV,,,,,,,
NaBrO$_{3}$,4.4649,eV,,,,,,,
DyCu,0.0,eV,,,,,,,
Bi$_{2}$Pt$_{2}$O$_{7}$,0.7881,eV,,,,,,,
YbRb$_{4}$I$_{6}$,3.6915,eV,,,,,,,
KFeBr$_{3}$,0.05509999999999993,eV,,,,,,,
Bi(BO$_{2}$)$_{3}$,3.8401,eV,,,,,,,
Rb$_{2}$PtCl$_{6}$,1.9363000000000001,eV,,,,,,,
Ge(Bi$_{3}$O$_{5}$)$_{4}$,2.3733000000000004,eV,,,,,,,
Cu$_{2}$HgI$_{4}$,0.5589000000000004,eV,,,,,,,
Hg$_{2}$BrN,0.6998000000000001,eV,,,,,,,
PAuCl$_{4}$,2.5498000000000003,eV,,,,,,,
Bi$_{4}$B$_{2}$O$_{9}$,2.8354,eV,,,,,,,
Sr$_{2}$Bi$_{2}$O$_{5}$,2.2554000000000003,eV,,,,,,,
Hg$_{5}$(ClO$_{2}$)$_{2}$,0.17969999999999997,eV,,,,,,,
PrAl$_{4}$,0.0,eV,,,,,,,
Zn(IO$_{3}$)$_{2}$,3.2505000000000006,eV,,,,,,,
Li$_{5}$CrCl$_{8}$,1.7483,eV,,,,,,,
NaAlCl$_{4}$,5.1556999999999995,eV,,,,,,,
CsLiCl$_{2}$,5.0329,eV,,,,,,,
Rb$_{2}$CoBr$_{4}$,0.641,eV,,,,,,,
HfCo$_{2}$,0.0,eV,,,,,,,
CuW$_{3}$Br$_{7}$,2.0637999999999996,eV,,,,,,,
Sn$_{2}$Bi$_{2}$O$_{7}$,2.7096,eV,,,,,,,
BaZnCl$_{4}$,4.6276,eV,,,,,,,
PNCl$_{2}$,4.1175,eV,,,,,,,
GaSeBr$_{7}$,2.2094,eV,,,,,,,
EuAgBi,0.0,eV,,,,,,,
TbZn$_{2}$,0.0,eV,,,,,,,
Tl$_{3}$PbI$_{5}$,2.6249,eV,,,,,,,
Y$_{4}$CI$_{5}$,0.0,eV,,,,,,,
Rb$_{2}$TeBr$_{6}$,2.0549,eV,,,,,,,
LiIO$_{3}$,3.7255000000000003,eV,,,,,,,
Sn$_{2}$SI$_{2}$,1.6146000000000003,eV,,,,,,,
Ti$_{3}$Pt,0.0,eV,,,,,,,
RbCdCl$_{3}$,3.5541,eV,,,,,,,
Tl$_{4}$CrI$_{6}$,0.40159999999999973,eV,,,,,,,
K$_{4}$CdCl$_{6}$,3.9837,eV,,,,,,,
Hg$_{2}$ClO,2.0369,eV,,,,,,,
MoNCl$_{3}$,1.6727,eV,,,,,,,
MoPCl$_{9}$,0.0,eV,,,,,,,
BClF$_{6}$,3.3030999999999997,eV,,,,,,,
Rb$_{2}$AgI$_{3}$,2.5761000000000003,eV,,,,,,,
Na$_{2}$O$_{2}$,1.7361,eV,,,,,,,
In(IO$_{3}$)$_{3}$,3.4112999999999998,eV,,,,,,,
SbIF$_{5}$,0.5522,eV,,,,,,,
TlBrO$_{4}$,2.9991,eV,,,,,,,
Cs$_{2}$TeBr$_{6}$,2.1121,eV,,,,,,,
Cs$_{2}$PtCl$_{6}$,2.1024,eV,,,,,,,
Hg(IO$_{3}$)$_{2}$,2.6917,eV,,,,,,,
Tl$_{4}$Bi$_{2}$S$_{5}$,0.9896999999999996,eV,,,,,,,
Pr$_{12}$C$_{6}$I$_{17}$,0.0,eV,,,,,,,
Li$_{3}$N,1.218,eV,,,,,,,
Nb$_{3}$Se$_{12}$I,0.07420000000000027,eV,,,,,,,
K$_{2}$TeBr$_{6}$,2.1407,eV,,,,,,,
SbCl$_{4}$F,1.3761999999999999,eV,,,,,,,
NbBiO$_{4}$,2.9369,eV,,,,,,,
Sc$_{4}$NCl$_{6}$,0.0,eV,,,,,,,
TlFeI$_{3}$,0.0,eV,,,,,,,
Li$_{2}$ZnCl$_{4}$,4.6751000000000005,eV,,,,,,,
InSn$_{2}$I$_{5}$,1.4292000000000002,eV,,,,,,,
Hg$_{3}$(SCl)$_{2}$,1.932,eV,,,,,,,
Sb$_{4}$Cl$_{2}$O$_{5}$,2.6435,eV,,,,,,,
Ge$_{19}$(PI)$_{4}$,1.0766000000000004,eV,,,,,,,
Yb$_{2}$LiCl$_{5}$,5.4787,eV,,,,,,,
Cs$_{2}$PbCl$_{6}$,1.4904,eV,,,,,,,
Al$_{4}$Bi$_{2}$O$_{9}$,2.7529000000000003,eV,,,,,,,
Ti$_{3}$(BiO$_{3}$)$_{4}$,2.424899999999999,eV,,,,,,,
CsCu$_{2}$I$_{3}$,1.9006000000000003,eV,,,,,,,
BaClF,5.4426,eV,,,,,,,
Al$_{2}$CuCl$_{8}$,0.5592999999999999,eV,,,,,,,
Bi$_{2}$TeI,0.0051000000000005485,eV,,,,,,,
Cs$_{4}$PbBr$_{6}$,3.8959,eV,,,,,,,
Y$_{6}$C$_{2}$I$_{7}$,0.032399999999999984,eV,,,,,,,
KCdCl$_{3}$,3.5095,eV,,,,,,,
MnTlI$_{3}$,1.3903999999999996,eV,,,,,,,
AsCl$_{2}$F$_{3}$,2.8569,eV,,,,,,,
Bi$_{2}$Ru$_{2}$O$_{7}$,0.13239999999999963,eV,,,,,,,
GeBi$_{2}$O$_{5}$,2.3222,eV,,,,,,,
Dy$_{2}$O$_{3}$,3.9251000000000005,eV,,,,,,,
RbIO$_{4}$,2.494,eV,,,,,,,
Cs$_{3}$Cr$_{2}$Br$_{9}$,1.3066,eV,,,,,,,
Sn$_{3}$BrF$_{5}$,3.0281000000000002,eV,,,,,,,
Hg$_{6}$Sb$_{5}$Br$_{7}$,0.9445000000000001,eV,,,,,,,
CsAgBr$_{2}$,2.0574,eV,,,,,,,
PBr$_{2}$N,3.0406,eV,,,,,,,
NiAs,0.0,eV,,,,,,,
Cs$_{2}$TeCl$_{6}$,2.7815000000000003,eV,,,,,,,
CsSn$_{2}$Br$_{5}$,2.4489,eV,,,,,,,
K$_{2}$RuCl$_{6}$,0.0,eV,,,,,,,
Re(AgCl$_{3}$)$_{2}$,0.8258,eV,,,,,,,
AgBi$_{3}$S$_{5}$,0.5219999999999994,eV,,,,,,,
Rb$_{2}$PbCl$_{6}$,1.254,eV,,,,,,,
Cd$_{7}$(P$_{2}$Cl$_{3}$)$_{2}$,1.7985,eV,,,,,,,
Zr$_{2}$Au,0.0,eV,,,,,,,
Cs$_{3}$Cu$_{2}$I$_{5}$,2.5112,eV,,,,,,,
Rb$_{2}$CrCl$_{4}$,0.0,eV,,,,,,,
CsAuCl$_{3}$,0.8098,eV,,,,,,,
Ag$_{2}$HgI$_{4}$,1.2205999999999997,eV,,,,,,,
RbNiCl$_{3}$,0.7213999999999998,eV,,,,,,,
KIO$_{3}$,2.7768000000000006,eV,,,,,,,
Tl$_{5}$Se$_{2}$I,0.7101999999999995,eV,,,,,,,
CsIO$_{4}$,2.5288,eV,,,,,,,
YCd$_{3}$,0.0,eV,,,,,,,
Si(Bi$_{3}$O$_{5}$)$_{4}$,2.3477999999999994,eV,,,,,,,
Ce(IO$_{3}$)$_{4}$,1.4876,eV,,,,,,,
Ti(Bi$_{3}$O$_{5}$)$_{4}$,2.3129999999999997,eV,,,,,,,
K$_{2}$ZnBr$_{4}$,3.6561,eV,,,,,,,
CsAg$_{2}$I$_{3}$,2.2789,eV,,,,,,,
Li$_{2}$ZnI$_{4}$,3.1982,eV,,,,,,,
NbSeBr$_{3}$,0.7308999999999999,eV,,,,,,,
K$_{2}$SnCl$_{6}$,2.4635,eV,,,,,,,
SN,0.0,eV,,,,,,,
Na$_{3}$InCl$_{6}$,3.7822999999999998,eV,,,,,,,
Sr$_{2}$InI$_{5}$,2.7625000000000006,eV,,,,,,,
K$_{2}$TeBr$_{6}$,1.9579,eV,,,,,,,
InSn$_{2}$Br$_{5}$,2.305,eV,,,,,,,
Rb$_{2}$CuCl$_{4}$,0.16019999999999995,eV,,,,,,,
TmPt$_{3}$,0.0,eV,,,,,,,
K$_{2}$PtCl$_{6}$,1.8478,eV,,,,,,,
BiSI,1.8668999999999998,eV,,,,,,,
K$_{2}$CoCl$_{4}$,0.8938,eV,,,,,,,
Cu$_{2}$Cl$_{2}$O,0.0,eV,,,,,,,
RbPbI$_{3}$,2.4562,eV,,,,,,,
Ga$_{4}$Bi$_{2}$O$_{9}$,2.8782,eV,,,,,,,
Na$_{2}$O,1.8736000000000002,eV,,,,,,,
InPb$_{2}$I$_{5}$,1.8602999999999996,eV,,,,,,,
BaZnCl$_{4}$,4.5948,eV,,,,,,,
KClO$_{4}$,5.539,eV,,,,,,,
K$_{2}$OsCl$_{6}$,0.0,eV,,,,,,,
KSn$_{2}$I$_{5}$,1.5097999999999998,eV,,,,,,,
K$_{2}$ZnBr$_{4}$,3.6745,eV,,,,,,,
SbI$_{3}$Cl$_{8}$,1.1884000000000001,eV,,,,,,,
KFeCl$_{3}$,0.0477000000000003,eV,,,,,,,
KSn$_{2}$Cl$_{5}$,3.0071,eV,,,,,,,
Ti$_{3}$Hg,0.0,eV,,,,,,,
KSn$_{2}$Br$_{5}$,2.3617999999999997,eV,,,,,,,
Hg$_{5}$(BrO$_{2}$)$_{2}$,0.25020000000000003,eV,,,,,,,
Bi$_{4}$Br$_{2}$O$_{5}$,2.5121,eV,,,,,,,
Na$_{2}$UI$_{6}$,0.0,eV,,,,,,,
Ba$_{7}$(ClF$_{6}$)$_{2}$,6.0482,eV,,,,,,,
AgBiO$_{3}$,0.0,eV,,,,,,,
Bi$_{3}$B$_{5}$O$_{12}$,3.283,eV,,,,,,,
KBrF$_{4}$,3.2009,eV,,,,,,,
Er(IO$_{3}$)$_{3}$,3.461,eV,,,,,,,
GeBi$_{2}$O$_{5}$,2.3808999999999996,eV,,,,,,,
Rb$_{3}$Mn$_{2}$Cl$_{7}$,1.2397000000000002,eV,,,,,,,
Ag$_{2}$BiO$_{3}$,0.3843000000000001,eV,,,,,,,
In(IO$_{3}$)$_{3}$,3.0681,eV,,,,,,,
Ge$_{3}$(BiO$_{3}$)$_{4}$,3.4880999999999998,eV,,,,,,,
KIO$_{4}$,2.3612,eV,,,,,,,
SiCl$_{2}$O,5.5534,eV,,,,,,,
CuHgSCl,0.5699999999999998,eV,,,,,,,
XeN$_{2}$(OF$_{4}$)$_{2}$,2.1924,eV,,,,,,,
AsSe$_{6}$IF$_{6}$,1.5603,eV,,,,,,,
KBa$_{4}$Bi$_{3}$O,0.7284000000000002,eV,,,,,,,
KBiP$_{2}$S$_{7}$,2.4445000000000006,eV,,,,,,,
SbPCl$_{8}$O,1.8685,eV,,,,,,,
AsSe$_{3}$(ClF$_{2}$)$_{3}$,1.9563000000000001,eV,,,,,,,
CsSbClF$_{3}$,3.6585,eV,,,,,,,
SmAl$_{2}$,0.0,eV,,,,,,,
KLi$_{6}$BiO$_{6}$,1.4216000000000002,eV,,,,,,,
Cs$_{4}$BiSbCl$_{12}$,0.5768,eV,,,,,,,
Hg$_{6}$S$_{4}$Br$_{3}$Cl,1.5348000000000002,eV,,,,,,,
HoSeClO$_{3}$,4.357200000000001,eV,,,,,,,
NdPt$_{5}$,0.0,eV,,,,,,,
Ag$_{2}$Hg$_{7}$(As$_{2}$I$_{3}$)$_{2}$,0.6387999999999998,eV,,,,,,,
SIO$_{3}$F,1.9298,eV,,,,,,,
SN,3.0285,eV,,,,,,,
CaGe,0.0,eV,,,,,,,
TaBi$_{4}$ClO$_{8}$,1.6173000000000002,eV,,,,,,,
Zn$_{3}$B$_{7}$ClO$_{13}$,4.4852,eV,,,,,,,
Hf$_{5}$Al$_{3}$,0.0,eV,,,,,,,
BaTa$_{2}$Bi$_{2}$O$_{9}$,1.9158,eV,,,,,,,
K$_{3}$B$_{6}$BrO$_{10}$,5.212000000000001,eV,,,,,,,
SrNb$_{2}$Bi$_{2}$O$_{9}$,2.4638,eV,,,,,,,
Si$_{2}$Bi$_{14}$IrI$_{12}$,0.15620000000000012,eV,,,,,,,
Mg$_{3}$B$_{7}$ClO$_{13}$,6.0062999999999995,eV,,,,,,,
NaBi(PO$_{3}$)$_{4}$,4.6279,eV,,,,,,,
Sm$_{3}$Si$_{2}$ClO$_{8}$,4.4572,eV,,,,,,,
B$_{5}$Pb$_{2}$BrO$_{9}$,3.4053000000000004,eV,,,,,,,
RbLi$_{2}$(IO$_{3}$)$_{3}$,3.8184,eV,,,,,,,
HfMo$_{2}$,0.0,eV,,,,,,,
NbBi$_{4}$ClO$_{8}$,1.3611,eV,,,,,,,
Ca$_{2}$BN$_{2}$Cl,3.3349999999999995,eV,,,,,,,
KSbClF$_{3}$,4.4254,eV,,,,,,,
TlRe$_{6}$Se$_{8}$Cl$_{3}$,1.4346999999999999,eV,,,,,,,
Cs$_{3}$Np(Cl$_{2}$O)$_{2}$,0.3642000000000001,eV,,,,,,,
PaO$_{2}$,0.0,eV,,,,,,,
Cd$_{5}$P$_{3}$ClO$_{12}$,2.1605999999999996,eV,,,,,,,
Hg$_{3}$AsClO$_{4}$,2.0411,eV,,,,,,,
KBiS(ClO$_{2}$)$_{2}$,4.179,eV,,,,,,,
Li$_{4}$Al$_{3}$Si$_{3}$ClO$_{12}$,5.2612000000000005,eV,,,,,,,
Pr$_{4}$As$_{3}$,0.0,eV,,,,,,,
TeSeS(NCl)$_{2}$,2.0902,eV,,,,,,,
Na$_{4}$Al$_{3}$Ge$_{3}$IO$_{12}$,3.4006,eV,,,,,,,
Hg$_{6}$S$_{4}$IBr$_{2}$Cl,1.4271,eV,,,,,,,
Na$_{3}$MgC$_{2}$ClO$_{6}$,4.1751,eV,,,,,,,
Na$_{4}$Al$_{3}$Si$_{3}$IO$_{12}$,4.3263,eV,,,,,,,
Na$_{4}$Ga$_{3}$Si$_{3}$ClO$_{12}$,4.1073,eV,,,,,,,
Na$_{6}$S$_{2}$ClO$_{8}$F,4.7796,eV,,,,,,,
Na$_{4}$Ga$_{3}$Si$_{3}$BrO$_{12}$,4.0513,eV,,,,,,,
KNa$_{22}$C$_{2}$S$_{9}$ClO$_{42}$,4.3544,eV,,,,,,,
LiB(HO)$_{4}$,5.5694,eV,,,,,,,
YH$_{3}$(CO$_{2}$)$_{3}$,3.988,eV,,,,,,,
AsH$_{8}$CN$_{3}$O$_{4}$,3.7938,eV,,,,,,,
RbP(HO$_{2}$)$_{2}$,5.2329,eV,,,,,,,
H$_{9}$C$_{4}$NO$_{4}$,3.2086,eV,,,,,,,
LaC$_{2}$,0.0,eV,,,,,,,
LaNi$_{5}$H$_{7}$,0.0,eV,,,,,,,
PH$_{6}$NO$_{4}$,5.506399999999999,eV,,,,,,,
NaH$_{4}$BrO$_{2}$,4.2539,eV,,,,,,,
H$_{4}$BrN,4.3113,eV,,,,,,,
PuH$_{3}$,0.0,eV,,,,,,,
H(CO)$_{2}$,2.8764,eV,,,,,,,
KH$_{3}$(CO$_{2}$)$_{2}$,4.8037,eV,,,,,,,
H$_{2}$CO,6.2385,eV,,,,,,,
NaHCO$_{2}$,4.9152000000000005,eV,,,,,,,
CaH$_{2}$(CO$_{2}$)$_{2}$,4.6455,eV,,,,,,,
CaCuH$_{4}$(CO$_{2}$)$_{4}$,0.7091999999999999,eV,,,,,,,
RbH$_{3}$(CO$_{2}$)$_{2}$,4.8136,eV,,,,,,,
SnPd,0.0,eV,,,,,,,
CaH$_{4}$SO$_{6}$,5.6879,eV,,,,,,,
Tl(BH)$_{6}$,4.5268999999999995,eV,,,,,,,
LiBH,0.0,eV,,,,,,,
K$_{3}$AlH$_{6}$,1.7988000000000002,eV,,,,,,,
PrNi$_{5}$,0.0,eV,,,,,,,
RbH$_{2}$OF,5.3401,eV,,,,,,,
CaB$_{8}$H$_{4}$O$_{15}$,5.6688,eV,,,,,,,
LiH$_{2}$N,3.1357999999999997,eV,,,,,,,
LiH,2.981,eV,,,,,,,
NaAlH$_{4}$,4.6648,eV,,,,,,,
Na$_{3}$AlH$_{6}$,2.8136,eV,,,,,,,
YH$_{3}$,0.0405000000000002,eV,,,,,,,
ReH$_{12}$C$_{4}$O$_{5}$F,2.968,eV,,,,,,,
Mg(AlH$_{4}$)$_{2}$,4.3638,eV,,,,,,,
Ga$_{2}$Te$_{5}$,0.9569999999999999,eV,,,,,,,
MgH$_{2}$,3.7097,eV,,,,,,,
MgH$_{2}$,3.6284,eV,,,,,,,
MgH$_{2}$,1.9527999999999999,eV,,,,,,,
CaH$_{2}$,3.028,eV,,,,,,,
SrH$_{2}$,3.1544,eV,,,,,,,
BaH$_{2}$,2.8699,eV,,,,,,,
Ca$_{2}$MgP$_{2}$(H$_{2}$O$_{5}$)$_{2}$,5.3863,eV,,,,,,,
BeAlH$_{5}$,3.2039999999999997,eV,,,,,,,
BeAlH$_{5}$,3.601,eV,,,,,,,
HCl,0.0,eV,,,,,,,
K$_{2}$CaH$_{2}$S$_{2}$O$_{9}$,5.3783,eV,,,,,,,
KHCO$_{3}$,5.0058,eV,,,,,,,
NaBeH$_{3}$,0.9154,eV,,,,,,,
PrFe$_{2}$,0.0,eV,,,,,,,
NaMgH$_{3}$,3.103,eV,,,,,,,
SiCu(HO$_{2}$)$_{2}$,0.059499999999999886,eV,,,,,,,
Cu$_{3}$H$_{2}$(CO$_{4}$)$_{2}$,0.1766000000000001,eV,,,,,,,
MgP(HO)$_{7}$,5.2566,eV,,,,,,,
LiMgH$_{3}$,4.0494,eV,,,,,,,
KMgH$_{3}$,2.458,eV,,,,,,,
RbMgH$_{3}$,2.5404999999999998,eV,,,,,,,
SiH$_{4}$,6.562100000000001,eV,,,,,,,
Mg$_{2}$PHO$_{5}$,4.9826999999999995,eV,,,,,,,
CsB$_{5}$(H$_{2}$O$_{3}$)$_{4}$,5.6249,eV,,,,,,,
AlH$_{12}$(ClO$_{2}$)$_{3}$,5.1391,eV,,,,,,,
H$_{8}$Se(NO$_{2}$)$_{2}$,3.6061,eV,,,,,,,
MgBHO$_{3}$,5.4376999999999995,eV,,,,,,,
NpPd$_{3}$,0.0,eV,,,,,,,
SiH$_{9}$C$_{4}$F$_{3}$,6.367,eV,,,,,,,
CsMgH$_{3}$,2.6161000000000003,eV,,,,,,,
Cs$_{2}$MgH$_{4}$,2.9953000000000003,eV,,,,,,,
BaH$_{3}$C$_{3}$O$_{7}$,2.8525,eV,,,,,,,
KNa(BH$_{4}$)$_{2}$,6.3522,eV,,,,,,,
SrH$_{2}$,1.3011,eV,,,,,,,
SnH$_{8}$(NCl$_{3}$)$_{2}$,2.3166,eV,,,,,,,
Mg$_{3}$Si$_{2}$H$_{4}$O$_{9}$,4.2447,eV,,,,,,,
AlZnH$_{4}$O$_{2}$F$_{5}$,5.0567,eV,,,,,,,
GaMo$_{3}$,0.0,eV,,,,,,,
SmH$_{3}$(CO$_{2}$)$_{3}$,4.1122,eV,,,,,,,
TbAg$_{3}$H$_{6}$C$_{6}$(N$_{2}$O)$_{3}$,2.5766999999999998,eV,,,,,,,
K$_{2}$LiAlH$_{6}$,2.5761,eV,,,,,,,
BeH$_{8}$(ClO$_{2}$)$_{2}$,5.341,eV,,,,,,,
H$_{8}$C$_{3}$SN(OF)$_{3}$,5.8094,eV,,,,,,,
H$_{4}$CN$_{2}$O,5.0712,eV,,,,,,,
K$_{3}$H(SO$_{4}$)$_{2}$,5.5008,eV,,,,,,,
Th$_{3}$Al$_{2}$,0.0,eV,,,,,,,
Na$_{3}$H(SO$_{4}$)$_{2}$,5.1855,eV,,,,,,,
Rb$_{3}$H(SO$_{4}$)$_{2}$,5.2433000000000005,eV,,,,,,,
NaB(H$_{4}$O)$_{2}$,5.8288,eV,,,,,,,
Na$_{2}$ZnH$_{8}$(SO$_{6}$)$_{2}$,4.7877,eV,,,,,,,
CoSi$_{2}$,0.0,eV,,,,,,,
H$_{4}$N$_{2}$O$_{3}$,3.0879000000000003,eV,,,,,,,
B(HO)$_{3}$,6.0656,eV,,,,,,,
NaCa$_{2}$Si$_{3}$HO$_{9}$,4.8456,eV,,,,,,,
H$_{4}$NF,5.9622,eV,,,,,,,
CuH$_{4}$(OF)$_{2}$,0.6739,eV,,,,,,,
LiH$_{6}$ClO$_{7}$,5.2939,eV,,,,,,,
H$_{4}$OF$_{2}$,7.0619,eV,,,,,,,
NaZnP$_{2}$HO$_{7}$,4.510800000000001,eV,,,,,,,
KHSO$_{4}$,5.4306,eV,,,,,,,
K$_{2}$H$_{2}$IrCl$_{5}$O,1.8583000000000003,eV,,,,,,,
GaHO$_{2}$,2.9954,eV,,,,,,,
Mg$_{2}$FeH$_{6}$,1.9139999999999997,eV,,,,,,,
BaAsH$_{3}$O$_{5}$,3.9765,eV,,,,,,,
AlHO$_{2}$,5.6572000000000005,eV,,,,,,,
KScBP$_{2}$HO$_{9}$,4.8467,eV,,,,,,,
RbScBP$_{2}$HO$_{9}$,4.8011,eV,,,,,,,
ErRh,0.0,eV,,,,,,,
BaAsHO$_{4}$,3.774,eV,,,,,,,
BaLiH$_{3}$,2.213,eV,,,,,,,