formula,Property Band Gap,Property Band Gap units,Property Band gap,Property Band gap units,Temperature (Property Band gap),Temperature (Property Band gap) units,Property Color,Temperature (Property Color),Temperature (Property Color) units
K$_{2}$GaAs$_{2}$,1.0115000000000003,eV,,,,,,,
Rb$_{2}$GaAs$_{2}$,0.8526000000000002,eV,,,,,,,
K$_{2}$GaP$_{2}$,1.2291999999999998,eV,,,,,,,
YB$_{2}$,0.0,eV,,,,,,,
Ge$_{2}$Pt,0.0,eV,,,,,,,
Na$_{2}$Ga$_{2}$As$_{3}$,1.0249000000000001,eV,,,,,,,
K$_{2}$Ga$_{2}$As$_{3}$,1.0329000000000002,eV,,,,,,,
K$_{2}$Ga$_{2}$Sb$_{3}$,0.9068999999999998,eV,,,,,,,
MgP$_{4}$O$_{11}$,5.1105,eV,,,,,,,
ZnP$_{4}$O$_{11}$,4.755800000000001,eV,,,,,,,
SmSi$_{3}$Pt$_{5}$,0.0,eV,,,,,,,
Nb$_{3}$Rh,0.0,eV,,,,,,,
DyMg$_{3}$,0.0,eV,,,,,,,
NiS,0.0,eV,,,,,,,
Ba$_{4}$LiCu(CO$_{5}$)$_{2}$,0.9264999999999999,eV,,,,,,,
PrMg,0.12400000000000011,eV,,,,,,,
Zn$_{3}$(AsO$_{4}$)$_{2}$,1.8965,eV,,,,,,,
Ag$_{6}$Ge$_{2}$O$_{7}$,0.009700000000000042,eV,,,,,,,
TbPt$_{3}$,0.0,eV,,,,,,,
DyTa$_{7}$O$_{19}$,3.2222999999999997,eV,,,,,,,
AlP,1.6302000000000003,eV,,,,,,,
Sr$_{4}$TiP$_{4}$,1.432,eV,,,,,,,
Sr$_{4}$TiAs$_{4}$,1.3504999999999998,eV,,,,,,,
Ba$_{4}$TiP$_{4}$,1.0679000000000003,eV,,,,,,,
Ba$_{4}$TiAs$_{4}$,1.036,eV,,,,,,,
Yb$_{4}$Si$_{2}$S$_{3}$O$_{7}$,0.0,eV,,,,,,,
CaTe$_{3}$O$_{8}$,2.0065,eV,,,,,,,
NaSe$_{2}$,1.1815000000000002,eV,,,,,,,
BaNaAlF$_{6}$,6.981,eV,,,,,,,
NdZn(BO$_{2}$)$_{5}$,5.037800000000001,eV,,,,,,,
Mo$_{2}$C,0.0,eV,,,,,,,
TbZn(BO$_{2}$)$_{5}$,5.0939,eV,,,,,,,
Ba$_{2}$LiSi$_{3}$,0.09229999999999983,eV,,,,,,,
HoNi$_{5}$,0.0,eV,,,,,,,
KTe,0.20389999999999997,eV,,,,,,,
KNa$_{2}$Si$_{12}$(BO$_{10}$)$_{3}$,5.1362000000000005,eV,,,,,,,
NaLiZr(Si$_{2}$O$_{5}$)$_{3}$,5.202999999999999,eV,,,,,,,
Na$_{2}$ZnGaF$_{7}$,3.9775,eV,,,,,,,
K$_{2}$LiAlF$_{6}$,7.2177999999999995,eV,,,,,,,
V$_{3}$Sb,0.0,eV,,,,,,,
Sr$_{2}$LiSi$_{3}$,0.0,eV,,,,,,,
KGd$_{2}$CuS$_{4}$,1.033,eV,,,,,,,
Rb$_{2}$As$_{3}$,0.39680000000000004,eV,,,,,,,
Cs$_{2}$As$_{3}$,0.4474999999999998,eV,,,,,,,
Li$_{3}$GaF$_{6}$,6.2804,eV,,,,,,,
KSb$_{5}$S$_{8}$,1.5628999999999995,eV,,,,,,,
PuTe,0.0,eV,,,,,,,
Ga(PO$_{3}$)$_{3}$,4.8881000000000006,eV,,,,,,,
Na$_{3}$AuS$_{2}$,2.3033,eV,,,,,,,
K$_{3}$AuSe$_{2}$,2.0531,eV,,,,,,,
Na$_{3}$Ca$_{3}$AlAs$_{4}$,0.9449000000000001,eV,,,,,,,
Tl$_{3}$AsO$_{4}$,2.5807,eV,,,,,,,
Ho$_{3}$Ga$_{5}$O$_{12}$,3.3260999999999994,eV,,,,,,,
Dy$_{3}$Ga$_{5}$O$_{12}$,3.3047,eV,,,,,,,
Pr$_{4}$Ga$_{2}$O$_{9}$,3.6091999999999995,eV,,,,,,,
SrPd$_{2}$,0.0,eV,,,,,,,
Ce(BRu)$_{2}$,0.0,eV,,,,,,,
Mg$_{3}$N$_{2}$,1.5099999999999998,eV,,,,,,,
Sr$_{2}$Nb$_{2}$O$_{7}$,2.7520999999999995,eV,,,,,,,
K$_{2}$Ca$_{2}$(SO$_{4}$)$_{3}$,5.3165,eV,,,,,,,
K$_{2}$Ca$_{2}$(SO$_{4}$)$_{3}$,5.5099,eV,,,,,,,
HoB$_{2}$C,0.0,eV,,,,,,,
TmB$_{2}$C,0.0,eV,,,,,,,
ScSi$_{3}$Ni$_{2}$,0.0,eV,,,,,,,
Ca(BC)$_{2}$,0.0,eV,,,,,,,
Ba(MnAs)$_{2}$,0.0,eV,,,,,,,
Cu(RhS$_{2}$)$_{2}$,0.0,eV,,,,,,,
Cu(RhSe$_{2}$)$_{2}$,0.0,eV,,,,,,,
Cr$_{5}$B$_{3}$,0.0,eV,,,,,,,
ThBe$_{13}$,0.0,eV,,,,,,,
AlSb,0.02210000000000001,eV,,,,,,,
HfSe$_{3}$,0.31709999999999994,eV,,,,,,,
Sr$_{2}$Sb,0.0,eV,,,,,,,
Rb$_{2}$NaTiF$_{6}$,0.0,eV,,,,,,,
CaSi,0.0,eV,,,,,,,
Cs$_{2}$NaTiF$_{6}$,0.04610000000000003,eV,,,,,,,
TiTl$_{3}$F$_{6}$,0.0,eV,,,,,,,
ZnRhF$_{6}$,0,eV,,,,,,,
CdRhF$_{6}$,0,eV,,,,,,,
HgRhF$_{6}$,0.0,eV,,,,,,,
NaTl,0.0,eV,,,,,,,
CaMgGe,0.0,eV,,,,,,,
SrMgSi,0.03299999999999992,eV,,,,,,,
SrMgGe,0.026900000000000368,eV,,,,,,,
DyB$_{2}$C,0.0,eV,,,,,,,
Ag$_{8}$SnS$_{6}$,0.5350999999999999,eV,,,,,,,
As$_{2}$Ir,0.8136999999999999,eV,,,,,,,
ZrO$_{2}$,3.1241999999999996,eV,,,,,,,
AsRu,0.0,eV,,,,,,,
NiSe,0.0,eV,,,,,,,
Rh$_{3}$(PbS)$_{2}$,0.0,eV,,,,,,,
CeSi$_{2}$Ni,0.0,eV,,,,,,,
Si$_{4}$Ir$_{3}$,0.0,eV,,,,,,,
TiCoSi,0,eV,,,,,,,
Sb$_{2}$Pt$_{3}$,0.0,eV,,,,,,,
SmFe$_{5}$,0.0,eV,,,,,,,
Nb$_{4}$C$_{3}$,0.0,eV,,,,,,,
Sc$_{4}$C$_{3}$,0.32699999999999996,eV,,,,,,,
NaSe,0.4799,eV,,,,,,,
Ti$_{3}$Te$_{4}$,0.0,eV,,,,,,,
ThNi$_{5}$,0.008999999999998565,eV,,,,,,,
Y$_{5}$S$_{7}$,0.0,eV,,,,,,,
Re$_{3}$B,0.0,eV,,,,,,,
CoAs,0.0,eV,,,,,,,
K$_{3}$P$_{11}$,1.93,eV,,,,,,,
CrAs$_{2}$,0.0,eV,,,,,,,
CrAsRh,0.0,eV,,,,,,,
K$_{2}$CuAs,1.0674000000000001,eV,,,,,,,
Na$_{2}$CuAs,0.6589999999999998,eV,,,,,,,
Li$_{2}$CuAs,0.0,eV,,,,,,,
KZnAs,0.20110000000000006,eV,,,,,,,
Be$_{2}$C,1.1655999999999995,eV,,,,,,,
NpAsS,0.0,eV,,,,,,,
PaAs,0.0,eV,,,,,,,
YAsPt,0.0,eV,,,,,,,
Sr$_{2}$As,0.0,eV,,,,,,,
Sr$_{5}$As$_{3}$,0.0,eV,,,,,,,
P,0.10599999999999987,eV,,,,,,,
YFe$_{2}$,0.0,eV,,,,,,,
Zn$_{3}$As$_{2}$,0.0,eV,,,,,,,
MgSiN$_{2}$,3.4715,eV,,,,,,,
MgCN$_{2}$,3.8457,eV,,,,,,,
BeCN$_{2}$,3.8512999999999993,eV,,,,,,,
BeSiN$_{2}$,3.562099999999999,eV,,,,,,,
LuB$_{2}$C,0.0,eV,,,,,,,
TbB$_{2}$C,0.0,eV,,,,,,,
LuCo$_{3}$B$_{2}$,0.0,eV,,,,,,,
PrPd$_{3}$,0.0,eV,,,,,,,
GaSe,1.2405999999999997,eV,,,,,,,
Fe$_{2}$B$_{4}$Mo,0.0,eV,,,,,,,
KNa$_{2}$Sb,0.6720999999999999,eV,,,,,,,
La(P$_{3}$Ru)$_{4}$,0.0,eV,,,,,,,
MgAg(PO$_{3}$)$_{3}$,3.3422,eV,,,,,,,
Sn$_{2}$Pd,0.00969999999999871,eV,,,,,,,
CaTaAlO$_{5}$,3.8999000000000006,eV,,,,,,,
Sr$_{3}$AlO$_{4}$F,4.0449,eV,,,,,,,
BaZn$_{2}$(AsO$_{4}$)$_{2}$,2.9793,eV,,,,,,,
SrZn$_{2}$(AsO$_{4}$)$_{2}$,2.8662,eV,,,,,,,
Nd$_{2}$CuO$_{4}$,0.0,eV,,,,,,,
Sr$_{2}$CeO$_{4}$,2.2243000000000004,eV,,,,,,,
Zr$_{2}$Cr$_{30}$P$_{19}$,0.0,eV,,,,,,,
Sr$_{2}$Si$_{2}$CuO$_{7}$,0.15869999999999962,eV,,,,,,,
CaC$_{2}$,2.02,eV,,,,,,,
TaAgP$_{4}$O$_{13}$,2.0967000000000002,eV,,,,,,,
Ba$_{3}$Y$_{4}$O$_{9}$,3.2657000000000003,eV,,,,,,,
Ba$_{3}$(LiAs)$_{4}$,0.2653000000000003,eV,,,,,,,
TmNi$_{2}$,0.0,eV,,,,,,,
Ba$_{4}$Ti$_{12}$O$_{27}$,0.0,eV,,,,,,,
Zn(GaSe$_{2}$)$_{2}$,1.3974999999999997,eV,,,,,,,
Zn(GaTe$_{2}$)$_{2}$,1.0156999999999998,eV,,,,,,,
MgNiSb,0.0,eV,,,,,,,
Mg$_{2}$SiNi$_{3}$,0.0,eV,,,,,,,
V$_{3}$Rh,0.0,eV,,,,,,,
MgPPt$_{5}$,0.0,eV,,,,,,,
KLaS$_{2}$,2.6985,eV,,,,,,,
KPrS$_{2}$,2.2688,eV,,,,,,,
KSmS$_{2}$,2.2759,eV,,,,,,,
KGdS$_{2}$,1.7388000000000001,eV,,,,,,,
KDyS$_{2}$,2.3354,eV,,,,,,,
KHoS$_{2}$,2.3526000000000002,eV,,,,,,,
YbKS$_{2}$,0.0,eV,,,,,,,
LiYS$_{2}$,1.9195999999999995,eV,,,,,,,
LiDyS$_{2}$,1.9344999999999999,eV,,,,,,,
ErC$_{2}$,0.0,eV,,,,,,,
LiHoS$_{2}$,1.9652000000000003,eV,,,,,,,
LiErS$_{2}$,2.0083,eV,,,,,,,
LiGdSe$_{2}$,1.1762000000000001,eV,,,,,,,
TbLiSe$_{2}$,1.5002999999999997,eV,,,,,,,
LiYSe$_{2}$,1.5238999999999998,eV,,,,,,,
LiDySe$_{2}$,1.5347999999999997,eV,,,,,,,
LiHoSe$_{2}$,1.5729000000000002,eV,,,,,,,
LiErSe$_{2}$,1.6151,eV,,,,,,,
Ti$_{3}$PO$_{2}$,0.0,eV,,,,,,,
Zr$_{3}$PO$_{2}$,0,eV,,,,,,,
Tm$_{2}$MgSe$_{4}$,1.4057000000000002,eV,,,,,,,
Y$_{2}$MgSe$_{4}$,1.3007,eV,,,,,,,
Yb$_{2}$MgSe$_{4}$,0.0,eV,,,,,,,
Mn$_{3}$ZnN,0.0,eV,,,,,,,
Cr$_{2}$B,0.0,eV,,,,,,,
As$_{2}$O$_{3}$,3.6199999999999997,eV,,,,,,,
Mn$_{3}$Mo$_{3}$C,0.0,eV,,,,,,,
Mn$_{3}$W$_{3}$C,0.0,eV,,,,,,,
Mn$_{3}$Al$_{9}$Si,0.0,eV,,,,,,,
As$_{2}$O$_{3}$,4.0252,eV,,,,,,,
LiHoGe,0.0,eV,,,,,,,
LiNdGe,0.0,eV,,,,,,,
LiSmGe,0.0,eV,,,,,,,
Lu$_{2}$Co$_{3}$Si$_{5}$,0.0,eV,,,,,,,
Ho$_{2}$Ge$_{2}$Os,0.0,eV,,,,,,,
Zn$_{4}$P$_{6}$SN$_{12}$,4.092599999999999,eV,,,,,,,
Nb$_{5}$Se$_{4}$,0.0,eV,,,,,,,
NdSbPt,0.0,eV,,,,,,,
YbIr$_{2}$,0.0,eV,,,,,,,
BaBPO$_{5}$,5.4963,eV,,,,,,,
Nb$_{2}$Co$_{12}$P$_{7}$,0.0,eV,,,,,,,
Ge$_{9}$Pd$_{25}$,0.0,eV,,,,,,,
TaPO$_{5}$,3.8263999999999996,eV,,,,,,,
SrLi$_{4}$N$_{2}$,0.8873999999999999,eV,,,,,,,
Lu$_{5}$SbPd$_{2}$,0.0,eV,,,,,,,
V$_{3}$Co,0.0,eV,,,,,,,
DyRh$_{3}$C,0.0,eV,,,,,,,
GaMo$_{4}$CS$_{8}$,0.0,eV,,,,,,,
RbScAsO$_{4}$F,4.0481,eV,,,,,,,
Co$_{4}$SnSb$_{12}$,0.0,eV,,,,,,,
C$_{11}$F$_{7}$,2.2206,eV,,,,,,,
Li$_{2}$US$_{3}$,0.0,eV,,,,,,,
Na$_{2}$US$_{3}$,0.0,eV,,,,,,,
Sr$_{2}$YIrO$_{6}$,0.0,eV,,,,,,,
Ba$_{2}$YIrO$_{6}$,0.0,eV,,,,,,,
Ba$_{2}$LaIrO$_{6}$,0.0,eV,,,,,,,
SiCu$_{2}$S$_{3}$,1.1124999999999998,eV,,,,,,,
SiCu$_{2}$Se$_{3}$,0.24020000000000064,eV,,,,,,,
La$_{4}$Si$_{2}$S$_{3}$O$_{7}$,2.4924,eV,,,,,,,
Dy$_{2}$Co$_{3}$Si$_{5}$,0.0,eV,,,,,,,
Be$_{12}$Cr,0.0,eV,,,,,,,
Sr$_{3}$Sc$_{2}$Cu$_{2}$S$_{2}$O$_{5}$,1.6930000000000005,eV,,,,,,,
Li$_{2}$LaTa$_{2}$O$_{7}$,0.0,eV,,,,,,,
Li$_{2}$Ca$_{2}$Ta$_{3}$O$_{10}$,0.0,eV,,,,,,,
BaGd$_{2}$ZnO$_{5}$,2.8138,eV,,,,,,,
Rb$_{2}$Mo$_{9}$S$_{11}$,0.0,eV,,,,,,,
Al$_{4}$C$_{3}$,1.3154000000000003,eV,,,,,,,
Re$_{2}$SbO$_{6}$,0.0,eV,,,,,,,
BeAgPO$_{4}$,2.6505,eV,,,,,,,
Ag$_{2}$Te,0.0,eV,,,,,,,
Gd$_{2}$ReO$_{5}$,0.7654999999999998,eV,,,,,,,
NdCrS$_{3}$,0.0,eV,,,,,,,
SmCrS$_{3}$,0.0,eV,,,,,,,
SrAl$_{2}$B$_{2}$O$_{7}$,4.6511000000000005,eV,,,,,,,
Ni$_{2}$Ge,0.0,eV,,,,,,,
Li(NiGe)$_{6}$,0,eV,,,,,,,
Nb$_{2}$O$_{5}$,2.171,eV,,,,,,,
Li(SiNi)$_{6}$,0.0,eV,,,,,,,
BeF$_{2}$,8.3241,eV,,,,,,,
P$_{2}$Rh,0.37049999999999983,eV,,,,,,,
As$_{2}$Rh,0.23749999999999982,eV,,,,,,,
Y(BC)$_{2}$,0.0,eV,,,,,,,
YBC,0.0,eV,,,,,,,
Sc$_{15}$C$_{19}$,0.0,eV,,,,,,,
Nb$_{3}$VS$_{6}$,0.0,eV,,,,,,,
Li$_{5}$AlO$_{4}$,4.662000000000001,eV,,,,,,,
HfPRu,0.0,eV,,,,,,,
Hf$_{3}$Sb,0.0,eV,,,,,,,
Hf$_{5}$Si$_{3}$,0.0,eV,,,,,,,
Sm(CoSi)$_{2}$,0.0,eV,,,,,,,
UO$_{2}$,0.0,eV,,,,,,,
Cr$_{2}$HgS$_{4}$,0.0,eV,,,,,,,
Mn(CrS$_{2}$)$_{2}$,0.0,eV,,,,,,,
Na$_{3}$P,0.40460000000000007,eV,,,,,,,
Ba$_{2}$NaNb$_{5}$O$_{15}$,2.4651,eV,,,,,,,
Zr$_{3}$(Cu$_{2}$Ge)$_{2}$,0.0,eV,,,,,,,
Hf(CuP)$_{2}$,0.0,eV,,,,,,,
Hf$_{3}$(SiCu$_{2}$)$_{2}$,0.0,eV,,,,,,,
Li$_{2}$CuSb,0.4535,eV,,,,,,,
BN,1.5764,eV,,,,,,,
Hg(PO$_{3}$)$_{2}$,2.5782000000000003,eV,,,,,,,
RbV(CuS$_{2}$)$_{2}$,1.1052,eV,,,,,,,
Li$_{3}$AuS$_{2}$,2.0985,eV,,,,,,,
B,1.4314,eV,,,,,,,
BaHg$_{11}$,0.0,eV,,,,,,,
Cs$_{5}$Ti$_{6}$AgSe$_{27}$,0.5868,eV,,,,,,,
Rb$_{5}$Ti$_{6}$AgSe$_{27}$,0.5599000000000001,eV,,,,,,,
U$_{2}$Ta$_{6}$O$_{19}$,0.0,eV,,,,,,,
SiS$_{2}$,3.0676,eV,,,,,,,
Y$_{2}$(SO$_{4}$)$_{3}$,5.6993,eV,,,,,,,
TmGa$_{3}$,0.0,eV,,,,,,,
Sn$_{3}$N$_{4}$,0.23079999999999945,eV,,,,,,,
Pr$_{2}$TeO$_{2}$,1.6555999999999997,eV,,,,,,,
Sm$_{2}$TeO$_{2}$,1.4223999999999997,eV,,,,,,,
Gd$_{2}$TeO$_{2}$,1.0708000000000002,eV,,,,,,,
Tb$_{2}$TeO$_{2}$,1.1715,eV,,,,,,,
Dy$_{2}$TeO$_{2}$,1.0886000000000005,eV,,,,,,,
Pt$_{3}$O$_{4}$,0.0,eV,,,,,,,
Mg(As$_{2}$Rh$_{3}$)$_{2}$,0.0,eV,,,,,,,
Ca(As$_{2}$Rh$_{3}$)$_{2}$,0.0,eV,,,,,,,
Sr(As$_{2}$Rh$_{3}$)$_{2}$,0.0,eV,,,,,,,
Ag$_{3}$O$_{4}$,0.0,eV,,,,,,,
Ba(Cu$_{2}$As)$_{2}$,0.0,eV,,,,,,,
SiCuO$_{3}$,0.10299999999999976,eV,,,,,,,
KLi$_{3}$Zr$_{2}$(Si$_{2}$O$_{5}$)$_{6}$,5.1525,eV,,,,,,,
Ho$_{2}$Cu(GeO$_{3}$)$_{4}$,0.8667,eV,,,,,,,
Er$_{2}$Cu(GeO$_{3}$)$_{4}$,0.8697999999999999,eV,,,,,,,
NbAu$_{2}$,0.0,eV,,,,,,,
AgAuF$_{4}$,1.0606,eV,,,,,,,
Sr$_{6}$Sb$_{6}$S$_{17}$,1.7409,eV,,,,,,,
Yb(Ni$_{2}$P)$_{2}$,0.0,eV,,,,,,,
YbCu$_{5}$,0.0,eV,,,,,,,
ZrHg$_{3}$,0.0,eV,,,,,,,
Ce$_{3}$Co$_{29}$(Si$_{2}$B$_{5}$)$_{2}$,0.0026999999999999247,eV,,,,,,,
Pr$_{3}$Co$_{29}$(Si$_{2}$B$_{5}$)$_{2}$,0.0037000000000002586,eV,,,,,,,
Nd$_{3}$Co$_{29}$(Si$_{2}$B$_{5}$)$_{2}$,0.007800000000000473,eV,,,,,,,
Sm$_{3}$Co$_{29}$(Si$_{2}$B$_{5}$)$_{2}$,0.011100000000000776,eV,,,,,,,
Tb$_{3}$Co$_{29}$(Si$_{2}$B$_{5}$)$_{2}$,0.010299999999999976,eV,,,,,,,
Cr$_{3}$Ir,0.0,eV,,,,,,,
Tm$_{3}$Co$_{29}$(Si$_{2}$B$_{5}$)$_{2}$,0.012199999999999989,eV,,,,,,,
Lu$_{3}$Co$_{29}$(Si$_{2}$B$_{5}$)$_{2}$,0.012199999999999989,eV,,,,,,,
Ba$_{6}$Si$_{25}$,0.008399999999999963,eV,,,,,,,
Tl(TeMo)$_{3}$,0.059500000000000774,eV,,,,,,,
CeSc$_{3}$(BO$_{3}$)$_{4}$,0.22490000000000077,eV,,,,,,,
B,0.05799999999999983,eV,,,,,,,
TbS,0.0,eV,,,,,,,
ZnAg$_{2}$P$_{2}$O$_{7}$,2.1142,eV,,,,,,,
Rb$_{3}$P$_{6}$N$_{11}$,3.9206000000000003,eV,,,,,,,
Cs$_{3}$P$_{6}$N$_{11}$,4.087899999999999,eV,,,,,,,
SmO,0.0,eV,,,,,,,
RbSm$_{2}$CuSe$_{4}$,0.8441000000000001,eV,,,,,,,
RbDy$_{2}$CuSe$_{4}$,0.9258000000000002,eV,,,,,,,
BaPr$_{2}$MnS$_{5}$,0.46639999999999926,eV,,,,,,,
RbNa$_{2}$Ge$_{17}$,0,eV,,,,,,,
Sm$_{3}$NbS$_{3}$O$_{4}$,2.286,eV,,,,,,,
Sr$_{3}$TaGa$_{3}$(SiO$_{7}$)$_{2}$,3.8521,eV,,,,,,,
K$_{4}$CaU$_{3}$O$_{12}$,2.1025,eV,,,,,,,
Na$_{3}$TiP$_{8}$O$_{23}$,0.21039999999999992,eV,,,,,,,
Pr$_{2}$Te$_{2}$O$_{7}$,1.5336999999999996,eV,,,,,,,
Sr(Ni$_{5}$P$_{3}$)$_{2}$,0.03539999999999921,eV,,,,,,,
Pr$_{4}$Si$_{2}$S$_{3}$O$_{7}$,2.5915,eV,,,,,,,
Sm$_{4}$Au$_{2}$O$_{9}$,2.0219,eV,,,,,,,
Pr$_{3}$ReO$_{8}$,1.8172000000000001,eV,,,,,,,
Dy$_{3}$Si$_{3}$O$_{10}$F,5.1089,eV,,,,,,,
Ho$_{3}$Si$_{3}$O$_{10}$F,5.1135,eV,,,,,,,
Na$_{2}$Sn$_{2}$Se$_{5}$,1.0177999999999998,eV,,,,,,,
SrCu$_{2}$GeSe$_{4}$,0.5884999999999998,eV,,,,,,,
PPd$_{6}$,0.0,eV,,,,,,,
Na$_{6}$S$_{2}$O$_{9}$,2.9766,eV,,,,,,,
Li$_{6}$Ca$_{12}$Re$_{4}$N$_{16}$O$_{3}$,0,eV,,,,,,,
Tl$_{2}$B$_{2}$Se$_{7}$,1.2811,eV,,,,,,,
Rb$_{2}$B$_{2}$Se$_{7}$,1.7001,eV,,,,,,,
Tm$_{4}$Zn$_{5}$Ge$_{6}$,0.08650000000000002,eV,,,,,,,
Ba$_{3}$Si$_{4}$,0.0,eV,,,,,,,
Lu$_{4}$Zn$_{5}$Ge$_{6}$,0.08139999999999992,eV,,,,,,,
Rb$_{2}$SiO$_{3}$,3.4349,eV,,,,,,,
Si$_{2}$W,0.0,eV,,,,,,,
K$_{3}$La(PS$_{4}$)$_{2}$,2.4497999999999998,eV,,,,,,,
Si,0.5334000000000003,eV,,,,,,,
TlTe,0.0,eV,,,,,,,
Y$_{3}$Si$_{3}$Rh,0.0016999999999995907,eV,,,,,,,
TaS$_{2}$,0,eV,,,,,,,
Zn$_{3}$Ni$_{2}$Ge,0,eV,,,,,,,
YS$_{2}$,0,eV,,,,,,,
ErS,0.0,eV,,,,,,,
Tb$_{5}$Sb$_{3}$,0,eV,,,,,,,
CsAg$_{3}$Se$_{2}$,0.19390000000000018,eV,,,,,,,
KAgSe,0.4838,eV,,,,,,,
La(SiAg)$_{2}$,0.0,eV,,,,,,,
Li$_{2}$AgSb,0.14290000000000003,eV,,,,,,,
Ag$_{3}$Sb,0,eV,,,,,,,
YbSiAg,0,eV,,,,,,,
CaSbAu,0,eV,,,,,,,
CdSbAu,0,eV,,,,,,,
Th(GeAu)$_{2}$,0,eV,,,,,,,
Th(SiAu)$_{2}$,0,eV,,,,,,,
Yb(SiAu)$_{2}$,0,eV,,,,,,,
BaCaGe,0.19589999999999996,eV,,,,,,,
BaCaSi,0.17959999999999976,eV,,,,,,,
BaCuP,0,eV,,,,,,,
CaCdGe,0.0032999999999998586,eV,,,,,,,
Ca(GeIr)$_{2}$,0,eV,,,,,,,
Ca(GePd)$_{2}$,0,eV,,,,,,,
Ca(GeRh)$_{2}$,0,eV,,,,,,,
CaZnGe,0,eV,,,,,,,
LiCaSb,0.6443000000000003,eV,,,,,,,
CaZnSi,0,eV,,,,,,,
Dy$_{2}$CdS$_{4}$,1.0877,eV,,,,,,,
CdGeP$_{2}$,0,eV,,,,,,,
Mo$_{2}$S$_{3}$,0.0,eV,,,,,,,
Li$_{2}$CdSb,0,eV,,,,,,,
Ce(FeP$_{3}$)$_{4}$,0.44510000000000005,eV,,,,,,,
CeScGe,0,eV,,,,,,,
TeRh,0.0,eV,,,,,,,
Ca$_{2}$Sb$_{2}$O$_{7}$,1.7338000000000005,eV,,,,,,,
Cd$_{2}$Sb$_{2}$O$_{7}$,0.5499999999999998,eV,,,,,,,
NdRh$_{3}$C,0.0,eV,,,,,,,
Th$_{2}$Au,0.0,eV,,,,,,,
ZnNi$_{3}$C,0.0,eV,,,,,,,
NaZr$_{2}$PdF$_{11}$,0.0,eV,,,,,,,
KSbO$_{3}$,1.1347999999999998,eV,,,,,,,
Sc$_{2}$C$_{3}$,0.014199999999999768,eV,,,,,,,
Sc$_{3}$SnC,0.0,eV,,,,,,,
Zr$_{3}$Hg,0.0,eV,,,,,,,
Tb$_{6}$O$_{11}$,0.011200000000000099,eV,,,,,,,
YPPt,0.0,eV,,,,,,,
ScPRu,0.0,eV,,,,,,,
Sr$_{2}$MgIrO$_{6}$,0,eV,,,,,,,
TbSbPt,0.09810000000000052,eV,,,,,,,
TmSbPt,0.36900000000000066,eV,,,,,,,
GePt$_{3}$,0.10430000000000028,eV,,,,,,,
Co$_{5}$As$_{2}$,0,eV,,,,,,,
Si$_{5}$Pt$_{12}$,0,eV,,,,,,,
RbTiS$_{2}$,0.010200000000000209,eV,,,,,,,
Rb$_{3}$Sb,0.08969999999999989,eV,,,,,,,
NdB$_{4}$,0.0,eV,,,,,,,
MnCu$_{2}$Sb,0.0,eV,,,,,,,
SrCuP,0.06059999999999999,eV,,,,,,,
DyPPt,0,eV,,,,,,,
DySbPt,0.4923000000000002,eV,,,,,,,
DyS$_{2}$,0,eV,,,,,,,
ErSbPt,0.41629999999999967,eV,,,,,,,
Fe$_{3}$PdN,0.0,eV,,,,,,,
Ti$_{3}$FeS$_{6}$,0,eV,,,,,,,
Zr$_{2}$Fe$_{3}$Si,0.0,eV,,,,,,,
Ga$_{2}$HgTe$_{4}$,0.6610999999999998,eV,,,,,,,
GaSi(MoS$_{2}$)$_{4}$,0.02210000000000001,eV,,,,,,,
MoSe$_{2}$,1.4177000000000004,eV,,,,,,,
GdPPt,0,eV,,,,,,,
Li$_{2}$HgGe,0,eV,,,,,,,
HoGe,0,eV,,,,,,,
LiInGe,0.03589999999999982,eV,,,,,,,
LiNi$_{2}$Ge,0,eV,,,,,,,
TbMg,0.024399999999999977,eV,,,,,,,
TiNiGe,0.0,eV,,,,,,,
ZnNi$_{2}$Ge,0.0,eV,,,,,,,
Mn$_{3}$Sb,0.0,eV,,,,,,,
CoAsS,0.8512000000000004,eV,,,,,,,
SnTe,0.24029999999999996,eV,,,,,,,
SnSb,0,eV,,,,,,,
Cu$_{2}$Se,0.08890000000000065,eV,,,,,,,
Re$_{2}$P,0.0,eV,,,,,,,
Th$_{2}$Ge,0.0,eV,,,,,,,
ThGe$_{2}$,0,eV,,,,,,,
ThGe$_{2}$,0.0037999999999991374,eV,,,,,,,
UGe$_{2}$,0,eV,,,,,,,
Ho$_{5}$Ni$_{19}$P$_{12}$,0,eV,,,,,,,
HoSbPt,0.45840000000000014,eV,,,,,,,
Ho(SiPt)$_{2}$,0,eV,,,,,,,
HoS$_{2}$,0,eV,,,,,,,
SrAl$_{2}$,0.0,eV,,,,,,,
Nd$_{2}$Te$_{3}$,0.1745000000000001,eV,,,,,,,
KCd$_{6}$P$_{7}$O$_{24}$,3.2745999999999995,eV,,,,,,,
BN,4.450200000000001,eV,,,,,,,
Ho$_{2}$C,0.0,eV,,,,,,,
Tb$_{4}$(SiS$_{4}$)$_{3}$,2.3655999999999997,eV,,,,,,,
SnHgP$_{14}$,1.1914999999999996,eV,,,,,,,
CrSb,0.0,eV,,,,,,,
LaPdO$_{3}$,0,eV,,,,,,,
Ta$_{5}$N$_{6}$,0,eV,,,,,,,
Zr$_{2}$CuSb$_{3}$,0,eV,,,,,,,
Pr(FeP$_{3}$)$_{4}$,0.0,eV,,,,,,,
Nd(FeP$_{3}$)$_{4}$,0.0,eV,,,,,,,
Sr$_{3}$(BO$_{3}$)$_{2}$,4.3938,eV,,,,,,,
Ca$_{2}$Ga$_{2}$O$_{5}$,2.1663,eV,,,,,,,
Ba$_{3}$Sc$_{4}$(CuO$_{4}$)$_{3}$,0.4394999999999998,eV,,,,,,,
PrSb,0.0,eV,,,,,,,
CsSm$_{2}$CuSe$_{4}$,0.8770000000000002,eV,,,,,,,
Al$_{9}$Rh$_{2}$,0.0,eV,,,,,,,
BaPr$_{2}$CoS$_{5}$,0.0,eV,,,,,,,
BaLa$_{2}$ZnS$_{5}$,1.4565000000000001,eV,,,,,,,
BaCe$_{2}$ZnS$_{5}$,0,eV,,,,,,,
BaPr$_{2}$ZnS$_{5}$,1.1719999999999997,eV,,,,,,,
BaNd$_{2}$ZnS$_{5}$,1.1406999999999994,eV,,,,,,,
BaNd$_{2}$MnS$_{5}$,0.0,eV,,,,,,,
Tl$_{2}$B$_{4}$O$_{7}$,3.3168999999999995,eV,,,,,,,
Li$_{3}$Hg,0.0,eV,,,,,,,
Gd$_{2}$Si$_{2}$O$_{7}$,2.8750999999999998,eV,,,,,,,
CsIn(PO$_{3}$)$_{4}$,4.3152,eV,,,,,,,
Np(GeRh)$_{2}$,0,eV,,,,,,,
YbTlS$_{2}$,0.0,eV,,,,,,,
Sr$_{11}$Sb$_{10}$,0.0,eV,,,,,,,
Tb$_{2}$Si$_{5}$Ru$_{3}$,0.0,eV,,,,,,,
YbS$_{2}$,0.0,eV,,,,,,,
Al$_{12}$Re,0.0,eV,,,,,,,
Al$_{3}$Au$_{8}$,0.0,eV,,,,,,,
TiAlAu,0.0,eV,,,,,,,
TiAlAu$_{2}$,0.0,eV,,,,,,,
BaAl$_{9}$Fe$_{2}$,0.0,eV,,,,,,,
Ce$_{2}$Al$_{2}$Co$_{15}$,0.0,eV,,,,,,,
Ce(Al$_{2}$Fe)$_{4}$,0.0,eV,,,,,,,
Ce(MnAl$_{2}$)$_{4}$,0.0,eV,,,,,,,
Al$_{9}$Co$_{2}$,0.0,eV,,,,,,,
Lu$_{2}$Al$_{3}$Co,0.0,eV,,,,,,,
SrAl$_{9}$Co$_{2}$,0.0,eV,,,,,,,
YAl$_{2}$Co,0.0,eV,,,,,,,
AlCrCu$_{2}$,0.0,eV,,,,,,,
AlCrFe$_{2}$,0.0,eV,,,,,,,
Al(ReCu)$_{2}$,0.0,eV,,,,,,,
ScAlCu$_{2}$,0.0,eV,,,,,,,
Sm(Al$_{2}$Cu)$_{4}$,0.0,eV,,,,,,,
Si,0.45169999999999977,eV,,,,,,,
HfAlPd$_{2}$,0.0,eV,,,,,,,
Ho$_{2}$Al,0.0,eV,,,,,,,
HoAl$_{2}$Ni,0.0,eV,,,,,,,
HoAl$_{4}$Ni,0.0,eV,,,,,,,
La$_{3}$Al$_{11}$,0.0,eV,,,,,,,
Li$_{3}$Al$_{2}$,0.24270000000000014,eV,,,,,,,
LuAl,0.0,eV,,,,,,,
Lu$_{3}$Al$_{2}$,0.0,eV,,,,,,,
LuAl$_{4}$Ni,0.0,eV,,,,,,,
Th$_{2}$Al,0.0,eV,,,,,,,
Mn$_{3}$Al$_{10}$,0.0,eV,,,,,,,
NdAl$_{3}$,0.0,eV,,,,,,,
Al$_{3}$Ni$_{5}$,0.0,eV,,,,,,,
Al$_{4}$Ni$_{3}$,0.0,eV,,,,,,,
TbAl$_{2}$Ni,0.0,eV,,,,,,,
TmAl$_{2}$Ni,0.0,eV,,,,,,,
TmAl$_{4}$Ni,0.0,eV,,,,,,,
UAlNi$_{4}$,0.0,eV,,,,,,,
ZnPd,0.0,eV,,,,,,,
NpAl$_{4}$,0.0,eV,,,,,,,
Al$_{3}$Os$_{2}$,0.0,eV,,,,,,,
Al$_{2}$Pd,0.0,eV,,,,,,,
Al$_{3}$Pd$_{5}$,0.0,eV,,,,,,,
ScAlPd$_{2}$,0.0,eV,,,,,,,
AlPt$_{2}$,0.0,eV,,,,,,,
Al$_{6}$Re,0.0,eV,,,,,,,
Al$_{6}$Ru,0.0,eV,,,,,,,
BaLa$_{2}$FeS$_{5}$,0.0,eV,,,,,,,
BaCe$_{2}$FeS$_{5}$,0.0,eV,,,,,,,
BaNd$_{2}$FeS$_{5}$,0.0,eV,,,,,,,
BaSm$_{2}$FeS$_{5}$,0.0,eV,,,,,,,
Ba$_{5}$Gd$_{8}$Zn$_{4}$O$_{21}$,2.7998000000000003,eV,,,,,,,
CeNi$_{2}$,0.0,eV,,,,,,,
Cs$_{3}$Cu$_{5}$O$_{4}$,1.6383,eV,,,,,,,
Mg$_{4}$As$_{6}$Ir$_{7}$,0.0,eV,,,,,,,
ZrTiF$_{6}$,0.0,eV,,,,,,,
UIr$_{2}$,0.0,eV,,,,,,,
SrAlF$_{5}$,7.2457,eV,,,,,,,
KHo$_{2}$CuSe$_{4}$,0.9224000000000001,eV,,,,,,,
KEr$_{2}$CuSe$_{4}$,0.944,eV,,,,,,,
ZnCu$_{2}$SnSe$_{4}$,0.0,eV,,,,,,,
CdCu$_{2}$SnSe$_{4}$,0.0,eV,,,,,,,
Cu$_{2}$SnHgSe$_{4}$,0.0,eV,,,,,,,
Al$_{17}$(Re$_{2}$Si)$_{2}$,0.0,eV,,,,,,,
UAs$_{2}$,0.0,eV,,,,,,,
Ca$_{7}$Ge$_{6}$,0.0,eV,,,,,,,
Li$_{2}$CaHfF$_{8}$,6.9952000000000005,eV,,,,,,,
Tl$_{2}$O$_{3}$,0.0,eV,,,,,,,
HgB$_{4}$O$_{7}$,2.5834,eV,,,,,,,
Dy$_{4}$Si$_{2}$S$_{3}$O$_{7}$,2.6106,eV,,,,,,,
ThRe$_{2}$,0.0,eV,,,,,,,
Tb$_{4}$Si$_{2}$S$_{3}$O$_{7}$,2.6064999999999996,eV,,,,,,,
Tm$_{4}$Si$_{2}$S$_{3}$O$_{7}$,2.6506,eV,,,,,,,
TbK$_{3}$Si$_{2}$O$_{7}$,3.688,eV,,,,,,,
K$_{3}$DySi$_{2}$O$_{7}$,3.7064,eV,,,,,,,
K$_{3}$HoSi$_{2}$O$_{7}$,3.7219999999999995,eV,,,,,,,
K$_{3}$ErSi$_{2}$O$_{7}$,3.7372000000000005,eV,,,,,,,
K$_{3}$TmSi$_{2}$O$_{7}$,3.7555000000000005,eV,,,,,,,
YbK$_{3}$Si$_{2}$O$_{7}$,0.0,eV,,,,,,,
ErZn,0.0,eV,,,,,,,
Dy$_{2}$B$_{4}$O$_{9}$,5.6211,eV,,,,,,,
Sr$_{2}$TmTaO$_{6}$,3.8822,eV,,,,,,,
Si$_{3}$Os$_{2}$,0.8552999999999997,eV,,,,,,,
Si$_{3}$Os$_{2}$,0.7189999999999994,eV,,,,,,,
Ge$_{3}$Os$_{2}$,0.7418000000000005,eV,,,,,,,
AlAuO$_{2}$,0.5888,eV,,,,,,,
Te$_{2}$Au,0.0,eV,,,,,,,
LuAl$_{7}$Au$_{3}$,0.0,eV,,,,,,,
HoAl$_{7}$Au$_{3}$,0.0,eV,,,,,,,
NdAl$_{7}$Au$_{3}$,0.0,eV,,,,,,,
DyAl$_{7}$Au$_{3}$,0.0,eV,,,,,,,
ErAl$_{7}$Au$_{3}$,0.0,eV,,,,,,,
YbAl$_{7}$Au$_{3}$,0.0,eV,,,,,,,
SmAl$_{7}$Au$_{3}$,0.0,eV,,,,,,,
TmAl$_{7}$Au$_{3}$,0.0,eV,,,,,,,
Nd$_{2}$MgCu$_{2}$,0.0,eV,,,,,,,
V$_{3}$Pd,0.0,eV,,,,,,,
YbSn$_{2}$Pd,0.0,eV,,,,,,,
PrMgPt,0.0,eV,,,,,,,
SmMgPt,0.0,eV,,,,,,,
PrMgRh,0.0,eV,,,,,,,
LiSn$_{4}$Rh,0.0,eV,,,,,,,
YbFe$_{2}$,0.0,eV,,,,,,,
Tb$_{2}$MgPd$_{2}$,0.0,eV,,,,,,,
Th$_{2}$S$_{5}$,1.7022000000000004,eV,,,,,,,