formula,Property Band Gap,Property Band Gap units,Property Band gap,Property Band gap units,Temperature (Property Band gap),Temperature (Property Band gap) units,Property Color,Temperature (Property Color),Temperature (Property Color) units
Co$_{3}$P$_{3}$O$_{11}$,0.36150000000000015,eV,,,,,,,
Li$_{2}$Co(PO$_{3}$)$_{4}$,3.2344,eV,,,,,,,
Li$_{3}$Co$_{3}$(PO$_{4}$)$_{4}$,0.7201,eV,,,,,,,
Li$_{4}$Co$_{5}$(P$_{3}$O$_{11}$)$_{2}$,2.2867999999999995,eV,,,,,,,
Co$_{5}$(P$_{3}$O$_{11}$)$_{2}$,0.10289999999999999,eV,,,,,,,
Li$_{3}$Co$_{2}$P$_{5}$O$_{16}$,3.1125000000000007,eV,,,,,,,
Co$_{2}$P$_{5}$O$_{16}$,0.0,eV,,,,,,,
Co(ClO$_{4}$)$_{2}$,2.9877000000000002,eV,,,,,,,
K$_{2}$CoO$_{2}$,0.6702000000000001,eV,,,,,,,
Ca$_{2}$CoO$_{3}$,1.5957,eV,,,,,,,
Sr$_{2}$TaCrO$_{6}$,2.8369000000000004,eV,,,,,,,
Cr$_{2}$ReO$_{6}$,0.11210000000000075,eV,,,,,,,
Ta$_{2}$CrO$_{6}$,0.3230000000000004,eV,,,,,,,
CrReO$_{4}$,0,eV,,,,,,,
Ta$_{2}$CrO$_{6}$,1.1376999999999997,eV,,,,,,,
BaSnO$_{3}$,0.36660000000000004,eV,,,,,,,
Ba$_{2}$TaCrO$_{6}$,2.1562,eV,,,,,,,
LiCr$_{2}$(PO$_{4}$)$_{3}$,0.0,eV,,,,,,,
CrP$_{2}$O$_{7}$,0.0,eV,,,,,,,
Cr$_{2}$P$_{3}$O$_{10}$,0.024099999999999788,eV,,,,,,,
LiCrPO$_{5}$,0.0,eV,,,,,,,
LiCr(PO$_{3}$)$_{4}$,3.3484,eV,,,,,,,
Na$_{2}$TiCr(PO$_{4}$)$_{3}$,2.4711,eV,,,,,,,
BaSO$_{4}$,5.950699999999999,eV,,,,,,,
Li$_{3}$Cr$_{3}$(PO$_{4}$)$_{4}$,2.7754000000000003,eV,,,,,,,
LiCr(PO$_{3}$)$_{3}$,3.1734000000000004,eV,,,,,,,
LiCrP$_{2}$O$_{7}$,2.4891999999999994,eV,,,,,,,
LiCrP$_{2}$O$_{7}$,3.1776,eV,,,,,,,
Li$_{3}$Cr$_{3}$(PO$_{4}$)$_{4}$,1.7131999999999998,eV,,,,,,,
CrPO$_{4}$,1.5779999999999998,eV,,,,,,,
LiCrPO$_{4}$,3.0855,eV,,,,,,,
LiCrP$_{2}$O$_{7}$,2.5042999999999997,eV,,,,,,,
LiCrP$_{2}$O$_{7}$,2.8322,eV,,,,,,,
RbMnSb,0.0,eV,,,,,,,
Cr$_{2}$P$_{5}$O$_{16}$,0.0015000000000000013,eV,,,,,,,
Li$_{3}$Cr$_{3}$(PO$_{4}$)$_{4}$,1.9048,eV,,,,,,,
CrP$_{2}$O$_{7}$,0.363,eV,,,,,,,
LiCrP$_{2}$O$_{7}$,2.9141000000000004,eV,,,,,,,
Cr$_{4}$(PO$_{4}$)$_{3}$,0.0,eV,,,,,,,
Th(SiOs)$_{2}$,0.0,eV,,,,,,,
LiCrP$_{2}$O$_{7}$,2.5142999999999995,eV,,,,,,,
LiCr$_{2}$P$_{3}$O$_{11}$,2.1306000000000003,eV,,,,,,,
Li$_{3}$Cr(PO$_{4}$)$_{2}$,2.6333999999999995,eV,,,,,,,
LiCrPO$_{4}$,1.5726000000000004,eV,,,,,,,
LiCr$_{2}$(PO$_{4}$)$_{3}$,0.3247,eV,,,,,,,
Cr(PO$_{3}$)$_{3}$,3.2081,eV,,,,,,,
Hg$_{2}$GeSe$_{4}$,0.42799999999999994,eV,,,,,,,
LiCrP$_{2}$O$_{7}$,2.7032999999999996,eV,,,,,,,
Li$_{3}$Cr$_{2}$(PO$_{4}$)$_{3}$,2.8275,eV,,,,,,,
Cr$_{9}$(PO$_{4}$)$_{8}$,0.0032999999999998586,eV,,,,,,,
Li$_{3}$Cr$_{2}$(PO$_{4}$)$_{3}$,2.7334000000000005,eV,,,,,,,
LiCr$_{2}$(PO$_{4}$)$_{3}$,0.11120000000000008,eV,,,,,,,
Cr(PO$_{3}$)$_{3}$,1.949,eV,,,,,,,
LiCrP$_{2}$O$_{7}$,0.7829,eV,,,,,,,
CrP$_{2}$O$_{7}$,0.1661999999999999,eV,,,,,,,
CrP$_{2}$O$_{7}$,0.5946,eV,,,,,,,
SnRh,0.0,eV,,,,,,,
LiCr(PO$_{3}$)$_{4}$,3.1407000000000007,eV,,,,,,,
CrOF$_{3}$,2.1075,eV,,,,,,,
Tl$_{2}$Cr$_{2}$O$_{7}$,2.2802,eV,,,,,,,
Li$_{3}$Cr(PO$_{4}$)$_{2}$,2.787,eV,,,,,,,
Li$_{3}$Cr$_{2}$(PO$_{4}$)$_{3}$,3.0446,eV,,,,,,,
CrPO$_{4}$,1.9681000000000002,eV,,,,,,,
Li$_{6}$Cr$_{9}$(PO$_{4}$)$_{8}$,2.7226000000000004,eV,,,,,,,
LiCr$_{2}$(PO$_{3}$)$_{5}$,2.6467,eV,,,,,,,
LiCr(PO$_{3}$)$_{3}$,3.0959,eV,,,,,,,
Li$_{5}$Cr$_{2}$P$_{5}$O$_{18}$,2.3194,eV,,,,,,,
LiCr(PO$_{3}$)$_{4}$,3.4402,eV,,,,,,,
Li$_{3}$Cr$_{2}$(PO$_{4}$)$_{3}$,2.6059000000000005,eV,,,,,,,
Cr$_{2}$P$_{3}$O$_{11}$,0.0,eV,,,,,,,
Ag$_{3}$AuSe$_{2}$,0.026100000000000012,eV,,,,,,,
Li$_{2}$CrP$_{2}$O$_{7}$,3.4773,eV,,,,,,,
Li$_{4}$Cr(PO$_{4}$)$_{2}$,1.4125999999999999,eV,,,,,,,
Li$_{3}$Cr(PO$_{4}$)$_{2}$,2.7819000000000003,eV,,,,,,,
Li$_{3}$Cr$_{2}$(PO$_{4}$)$_{3}$,1.8925000000000005,eV,,,,,,,
CrBrO,1.4343000000000001,eV,,,,,,,
Li$_{3}$Cr$_{2}$(PO$_{4}$)$_{3}$,2.9029,eV,,,,,,,
LiCrPO$_{4}$,2.9731,eV,,,,,,,
Li$_{3}$Cr$_{2}$(PO$_{4}$)$_{3}$,2.8554000000000004,eV,,,,,,,
CaAlSi,0.0,eV,,,,,,,
Li$_{3}$Cr$_{2}$P$_{5}$O$_{16}$,2.7887,eV,,,,,,,
LiCr$_{2}$P$_{5}$O$_{16}$,2.9926,eV,,,,,,,
Cr(PO$_{3}$)$_{4}$,0.09640000000000015,eV,,,,,,,
Li$_{2}$CrP$_{2}$O$_{7}$,3.1019999999999994,eV,,,,,,,
Cr(PO$_{3}$)$_{3}$,2.9852999999999996,eV,,,,,,,
Li$_{2}$CrP$_{4}$O$_{13}$,0.12710000000000002,eV,,,,,,,
LiCr(PO$_{3}$)$_{4}$,3.1693,eV,,,,,,,
Cr$_{3}$(PO$_{4}$)$_{4}$,0.0,eV,,,,,,,
Cr(PO$_{3}$)$_{4}$,0.0,eV,,,,,,,
Li$_{3}$Cr(PO$_{4}$)$_{2}$,1.9816000000000003,eV,,,,,,,
BaTi$_{4}$O$_{9}$,2.7859000000000003,eV,,,,,,,
CrPO$_{4}$,2.2012000000000005,eV,,,,,,,
Ba$_{2}$Cr$_{7}$O$_{14}$,0.0026000000000001577,eV,,,,,,,
RbCr$_{3}$O$_{8}$,1.8319,eV,,,,,,,
Ta$_{2}$FeO$_{6}$,2.3539000000000003,eV,,,,,,,
Ba$_{2}$FeReO$_{6}$,0.0,eV,,,,,,,
Sr$_{2}$TaFeO$_{6}$,2.0999,eV,,,,,,,
Ca$_{2}$FeReO$_{6}$,0.0,eV,,,,,,,
Fe$_{2}$(MoO$_{4}$)$_{3}$,2.4348,eV,,,,,,,
LiFe$_{5}$O$_{8}$,1.318,eV,,,,,,,
Sr(FeO$_{2}$)$_{2}$,1.8881999999999999,eV,,,,,,,
Nd(CuGe)$_{2}$,0.0,eV,,,,,,,
Fe$_{3}$O$_{4}$,0.7350999999999996,eV,,,,,,,
Li$_{2}$Fe$_{2}$(MoO$_{4}$)$_{3}$,2.6963,eV,,,,,,,
V$_{2}$Fe$_{3}$(SiO$_{4}$)$_{3}$,0.0,eV,,,,,,,
Li$_{3}$Fe(PO$_{4}$)$_{2}$,2.3294,eV,,,,,,,
LiFePO$_{4}$,3.5239,eV,,,,,,,
LiFe$_{2}$(PO$_{4}$)$_{3}$,0.008899999999999991,eV,,,,,,,
Li$_{3}$Fe$_{2}$(PO$_{4}$)$_{3}$,1.391,eV,,,,,,,
Fe$_{4}$(PO$_{4}$)$_{3}$,1.4228999999999998,eV,,,,,,,
LiFe(PO$_{3}$)$_{4}$,2.8659999999999997,eV,,,,,,,
LiFeP$_{2}$O$_{7}$,2.5248,eV,,,,,,,
Li$_{3}$Fe(PO$_{4}$)$_{2}$,1.9266999999999999,eV,,,,,,,
Li$_{3}$Fe$_{2}$(PO$_{4}$)$_{3}$,2.6072,eV,,,,,,,
LiFe(PO$_{3}$)$_{3}$,4.0847,eV,,,,,,,
Tb$_{3}$(SiCu)$_{4}$,0.0,eV,,,,,,,
FeP$_{2}$O$_{7}$,0.0,eV,,,,,,,
LiFe(PO$_{3}$)$_{4}$,2.7007,eV,,,,,,,
Li$_{3}$Fe$_{3}$(PO$_{4}$)$_{4}$,2.2343,eV,,,,,,,
Na$_{3}$FeO$_{3}$,2.0753,eV,,,,,,,
SrIr$_{2}$,0.0,eV,,,,,,,
Ta$_{2}$Te$_{2}$O$_{9}$,3.1919,eV,,,,,,,
LiFe$_{2}$P$_{3}$O$_{10}$,3.1542000000000003,eV,,,,,,,
Al$_{2}$FeO$_{4}$,0,eV,,,,,,,
Fe$_{4}$As$_{2}$O$_{11}$,1.6268000000000002,eV,,,,,,,
LiFe$_{3}$(P$_{3}$O$_{10}$)$_{2}$,2.4394,eV,,,,,,,
LiFe(PO$_{3}$)$_{4}$,2.3323,eV,,,,,,,
Li$_{2}$FeP$_{2}$O$_{7}$,4.1143,eV,,,,,,,
Fe$_{3}$(PO$_{4}$)$_{4}$,0.0,eV,,,,,,,
Li$_{4}$Fe$_{5}$(P$_{3}$O$_{11}$)$_{2}$,3.681,eV,,,,,,,
Li$_{2}$Fe(PO$_{4}$)$_{2}$,0.0,eV,,,,,,,
Li$_{2}$Fe(PO$_{3}$)$_{4}$,3.9524,eV,,,,,,,
Th$_{3}$B$_{2}$C$_{3}$,0.0,eV,,,,,,,
LiFe(PO$_{3}$)$_{4}$,2.3613,eV,,,,,,,
LiFeP$_{2}$O$_{7}$,2.5133,eV,,,,,,,
Li$_{3}$Fe$_{3}$(PO$_{4}$)$_{4}$,2.2457,eV,,,,,,,
DyBRh$_{3}$,0.0,eV,,,,,,,
LiFeP$_{2}$O$_{7}$,2.3731,eV,,,,,,,
Li$_{3}$Fe$_{2}$(PO$_{4}$)$_{3}$,2.2235,eV,,,,,,,
Li$_{2}$Fe$_{3}$(P$_{2}$O$_{7}$)$_{2}$,3.8897,eV,,,,,,,
LiFeP$_{2}$O$_{7}$,2.3937000000000004,eV,,,,,,,
Li$_{3}$Fe$_{3}$(PO$_{4}$)$_{4}$,2.0788,eV,,,,,,,
LiFe$_{2}$(PO$_{4}$)$_{3}$,0.0,eV,,,,,,,
LiFePO$_{4}$,3.3621,eV,,,,,,,
Li$_{6}$Fe$_{9}$(PO$_{4}$)$_{8}$,3.2592000000000003,eV,,,,,,,
LiFeP$_{2}$O$_{7}$,2.2507,eV,,,,,,,
Li$_{3}$Fe$_{3}$(PO$_{4}$)$_{4}$,2.3379,eV,,,,,,,
Ca(Fe$_{2}$O$_{3}$)$_{2}$,1.0958000000000006,eV,,,,,,,
LiFeP$_{2}$O$_{7}$,2.0915,eV,,,,,,,
LiFeP$_{2}$O$_{7}$,2.5465000000000004,eV,,,,,,,
Ti$_{2}$FeO$_{5}$,1.5668999999999995,eV,,,,,,,
Fe$_{3}$(SiO$_{4}$)$_{2}$,1.7005000000000003,eV,,,,,,,
TbB$_{2}$Ru$_{3}$,0.0,eV,,,,,,,
LiFe(PO$_{3}$)$_{4}$,2.9638999999999998,eV,,,,,,,
BaCeO$_{3}$,2.2207000000000003,eV,,,,,,,
LiFeP$_{2}$O$_{7}$,2.6721,eV,,,,,,,
LiFeP$_{2}$O$_{7}$,2.2832999999999997,eV,,,,,,,
Fe$_{5}$(P$_{3}$O$_{11}$)$_{2}$,0.0027999999999999137,eV,,,,,,,
LiFe(PO$_{3}$)$_{4}$,1.8305000000000002,eV,,,,,,,
Fe(PO$_{3}$)$_{4}$,0.34409999999999996,eV,,,,,,,
Fe$_{3}$(P$_{3}$O$_{10}$)$_{2}$,0.09330000000000005,eV,,,,,,,
Zn(SbO$_{3}$)$_{2}$,0.5421999999999993,eV,,,,,,,
Li$_{3}$Fe(PO$_{4}$)$_{2}$,2.1811999999999996,eV,,,,,,,
Li$_{3}$Fe$_{2}$P$_{5}$O$_{16}$,4.196000000000001,eV,,,,,,,
Li$_{3}$Fe(PO$_{3}$)$_{8}$,0.0,eV,,,,,,,
LiFe$_{2}$P$_{5}$O$_{16}$,2.5641,eV,,,,,,,
Li$_{4}$Fe(PO$_{4}$)$_{2}$,3.9187000000000003,eV,,,,,,,
Fe$_{3}$(PO$_{4}$)$_{4}$,0.0528,eV,,,,,,,
K$_{3}$FeO$_{2}$,1.1592,eV,,,,,,,
Ba$_{2}$MnReO$_{6}$,0.0,eV,,,,,,,
Sm$_{2}$Tl,0.0,eV,,,,,,,
Er(FeB)$_{2}$,0.0,eV,,,,,,,
TaMn$_{2}$O$_{3}$,0.0,eV,,,,,,,
Ta$_{2}$MnZn$_{2}$O$_{8}$,2.9972,eV,,,,,,,
Ta$_{2}$Mn$_{4}$O$_{9}$,2.4553000000000003,eV,,,,,,,
MnReO$_{4}$,0.0,eV,,,,,,,
Mn(ReO$_{4}$)$_{2}$,0.23529999999999984,eV,,,,,,,
Ta$_{2}$Mn$_{3}$O$_{8}$,2.3188000000000004,eV,,,,,,,
Ho(FeSi)$_{2}$,0.0,eV,,,,,,,
Li$_{3}$Mn$_{2}$(PO$_{4}$)$_{3}$,0.0,eV,,,,,,,
Mn(PbO$_{2}$)$_{2}$,0.9806999999999997,eV,,,,,,,
LiMnP$_{2}$O$_{7}$,1.2857999999999998,eV,,,,,,,
Mn$_{3}$B$_{7}$IO$_{13}$,3.813,eV,,,,,,,
BaMn$_{2}$O$_{8}$,1.8622,eV,,,,,,,
Mn$_{2}$P$_{3}$O$_{11}$,0.0,eV,,,,,,,
LiMnPO$_{4}$,3.5393,eV,,,,,,,
LiMnPO$_{4}$,3.2613000000000003,eV,,,,,,,
LiMnP$_{2}$O$_{7}$,1.2249999999999999,eV,,,,,,,
LiMnP$_{2}$O$_{7}$,1.2185,eV,,,,,,,
MnPO$_{4}$,0.0,eV,,,,,,,
LiMnP$_{2}$O$_{7}$,1.0887,eV,,,,,,,
MnHO$_{2}$,0.7488999999999999,eV,,,,,,,
Na$_{2}$Si$_{2}$O$_{5}$,4.4533,eV,,,,,,,
MnPO$_{4}$,0.18779999999999974,eV,,,,,,,
LiMn$_{4}$(PO$_{4}$)$_{3}$,2.7244,eV,,,,,,,
Li$_{2}$Mn$_{3}$(P$_{2}$O$_{7}$)$_{2}$,3.5737000000000005,eV,,,,,,,
MnP$_{2}$O$_{7}$,0.9721000000000002,eV,,,,,,,
LiMn(PO$_{3}$)$_{4}$,1.7762,eV,,,,,,,
LiMnPO$_{4}$,3.2476000000000003,eV,,,,,,,
Tb$_{2}$Al$_{3}$Si$_{2}$,0.0,eV,,,,,,,
LiMnPO$_{4}$,3.3678999999999997,eV,,,,,,,
Mn$_{2}$(PO$_{4}$)$_{3}$,0.0,eV,,,,,,,
MnPO$_{4}$,1.0971000000000002,eV,,,,,,,
MnP$_{2}$O$_{7}$,1.6085000000000003,eV,,,,,,,
Mn$_{4}$(PO$_{4}$)$_{3}$,0.0,eV,,,,,,,
LiMnPO$_{4}$,3.2386000000000004,eV,,,,,,,
Sr$_{11}$(CdSb$_{2}$)$_{6}$,0.3131999999999997,eV,,,,,,,
LiMn(PO$_{3}$)$_{4}$,1.7367000000000001,eV,,,,,,,
Li$_{2}$MnP$_{2}$O$_{7}$,3.8564,eV,,,,,,,
Mn$_{5}$(P$_{3}$O$_{11}$)$_{2}$,0.0,eV,,,,,,,
LiMn(PO$_{3}$)$_{3}$,4.1567,eV,,,,,,,
Li$_{3}$Mn$_{2}$(PO$_{4}$)$_{3}$,1.0733000000000001,eV,,,,,,,
Li$_{2}$MnP$_{2}$O$_{7}$,3.8876,eV,,,,,,,
NdGaO$_{3}$,3.4528999999999996,eV,,,,,,,
LiMnP$_{2}$O$_{7}$,1.4455,eV,,,,,,,
LiMn$_{2}$(PO$_{3}$)$_{5}$,4.2135,eV,,,,,,,
Li$_{6}$Mn$_{9}$(PO$_{4}$)$_{8}$,2.9786,eV,,,,,,,
Li$_{2}$Mn(PO$_{3}$)$_{4}$,4.101,eV,,,,,,,
Li$_{3}$Mn$_{2}$(PO$_{4}$)$_{3}$,1.0746,eV,,,,,,,
LiMnPO$_{4}$,3.4406,eV,,,,,,,
LiMnP$_{2}$O$_{7}$,0.9732999999999999,eV,,,,,,,
Li$_{3}$Mn(PO$_{4}$)$_{2}$,1.0943,eV,,,,,,,
Li$_{2}$Mn(PO$_{3}$)$_{4}$,4.1915,eV,,,,,,,
LiMn(PO$_{3}$)$_{4}$,0.6489,eV,,,,,,,
Mn$_{2}$P$_{3}$O$_{10}$,0.07999999999999963,eV,,,,,,,
MnP$_{2}$O$_{7}$,1.0733000000000001,eV,,,,,,,
Mn(SeO$_{3}$)$_{2}$,1.2896999999999998,eV,,,,,,,
BaMn$_{3}$O$_{6}$,0.004100000000000215,eV,,,,,,,
Li$_{2}$Mn$_{3}$(P$_{2}$O$_{7}$)$_{2}$,3.7499,eV,,,,,,,
Li$_{3}$Mn$_{2}$P$_{5}$O$_{16}$,3.9853000000000005,eV,,,,,,,
CuSe$_{2}$O$_{5}$,0.00550000000000006,eV,,,,,,,
LiMn$_{2}$P$_{5}$O$_{16}$,1.2123,eV,,,,,,,
Li$_{3}$Mn$_{2}$(PO$_{4}$)$_{3}$,1.1331000000000002,eV,,,,,,,
LiMnPO$_{4}$,3.9966999999999997,eV,,,,,,,
LiMn$_{2}$(PO$_{4}$)$_{3}$,1.2013,eV,,,,,,,
Mn(PO$_{3}$)$_{4}$,0.008899999999999908,eV,,,,,,,
Na$_{2}$MnO$_{4}$,0.0,eV,,,,,,,
Lu$_{2}$Ti$_{2}$O$_{7}$,2.5102,eV,,,,,,,
LiMn$_{2}$P$_{3}$O$_{10}$,3.6282000000000005,eV,,,,,,,
Mn(PO$_{3}$)$_{4}$,0.5534,eV,,,,,,,
LiMn$_{2}$(PO$_{4}$)$_{3}$,1.0579,eV,,,,,,,
LiMn$_{2}$P$_{3}$O$_{10}$,3.7861999999999996,eV,,,,,,,
MgMn$_{2}$O$_{4}$,1.0137999999999998,eV,,,,,,,
LiMn(PO$_{3}$)$_{4}$,1.3282,eV,,,,,,,
Li$_{4}$Mn(PO$_{4}$)$_{2}$,4.124,eV,,,,,,,
Mn$_{2}$BO$_{4}$,0.5519000000000003,eV,,,,,,,
Li$_{2}$GaPd,0.0,eV,,,,,,,
Mn$_{2}$NiO$_{4}$,0,eV,,,,,,,
LiMn$_{2}$(PO$_{4}$)$_{3}$,0.351,eV,,,,,,,
Na$_{5}$MnO$_{4}$,1.3859,eV,,,,,,,
Li$_{3}$Mn$_{2}$(PO$_{4}$)$_{3}$,1.4003999999999999,eV,,,,,,,
LiMn$_{2}$(PO$_{4}$)$_{3}$,0.6003000000000001,eV,,,,,,,
Li$_{3}$Mn$_{3}$(PO$_{4}$)$_{4}$,0.5955999999999999,eV,,,,,,,
Mn(PO$_{3}$)$_{4}$,0.0,eV,,,,,,,
BaNi$_{9}$P$_{5}$,0,eV,,,,,,,
LiMn$_{4}$(PO$_{4}$)$_{3}$,2.5146,eV,,,,,,,
LiMnP$_{2}$O$_{7}$,1.7018,eV,,,,,,,
LiMn$_{2}$(PO$_{4}$)$_{3}$,0.0,eV,,,,,,,
Li$_{3}$Mn$_{2}$(PO$_{4}$)$_{3}$,0.9513,eV,,,,,,,
Li$_{2}$Mn$_{3}$(P$_{2}$O$_{7}$)$_{2}$,3.4753,eV,,,,,,,
Mn(PO$_{3}$)$_{4}$,0.43579999999999997,eV,,,,,,,
Li$_{3}$Mn$_{3}$(PO$_{4}$)$_{4}$,1.0226,eV,,,,,,,
NdTaO$_{4}$,3.9417999999999997,eV,,,,,,,
LiMn$_{2}$(PO$_{4}$)$_{3}$,1.0598,eV,,,,,,,
Mn$_{2}$P$_{5}$O$_{16}$,0.09940000000000004,eV,,,,,,,
Bi$_{2}$(MoO$_{4}$)$_{3}$,2.6389000000000005,eV,,,,,,,
YbSnPd,0.0,eV,,,,,,,
Tb$_{4}$Mo$_{4}$O$_{11}$,0.12380000000000013,eV,,,,,,,
NaMoPO$_{6}$,2.7291,eV,,,,,,,
LiMoP$_{2}$O$_{7}$,4.3222000000000005,eV,,,,,,,
LiMo(PO$_{3}$)$_{4}$,4.4507,eV,,,,,,,
LiMoP$_{2}$O$_{7}$,3.8947000000000003,eV,,,,,,,
K$_{2}$Mo$_{2}$O$_{7}$,3.4022,eV,,,,,,,
LiMo$_{2}$(PO$_{4}$)$_{3}$,1.4185,eV,,,,,,,
Li$_{3}$Mo(PO$_{4}$)$_{2}$,4.1142,eV,,,,,,,
CaCO$_{3}$,4.2614,eV,,,,,,,
MoP$_{2}$O$_{7}$,1.1913,eV,,,,,,,
Mo$_{2}$(PO$_{4}$)$_{3}$,0.8731,eV,,,,,,,
Mo(PO$_{4}$)$_{2}$,1.3828,eV,,,,,,,
LiMoP$_{2}$O$_{7}$,4.1023,eV,,,,,,,
MoP$_{2}$O$_{7}$,1.0978000000000003,eV,,,,,,,
Li$_{3}$Mo$_{3}$(PO$_{4}$)$_{4}$,2.511,eV,,,,,,,
La$_{2}$Mo$_{2}$O$_{7}$,0.4386000000000001,eV,,,,,,,
Li$_{3}$Mo$_{3}$(PO$_{4}$)$_{4}$,3.3772,eV,,,,,,,
MoP$_{2}$O$_{7}$,1.3901,eV,,,,,,,
LiMo$_{2}$(PO$_{4}$)$_{3}$,1.3701999999999999,eV,,,,,,,
UMo$_{5}$O$_{16}$,0.2885,eV,,,,,,,
Sr(NiGe)$_{2}$,0.0,eV,,,,,,,
Li$_{3}$Mo$_{3}$(PO$_{4}$)$_{4}$,2.6826,eV,,,,,,,
LiMo$_{2}$P$_{3}$O$_{11}$,3.4407000000000005,eV,,,,,,,
LiMoP$_{4}$O$_{13}$,1.5217999999999998,eV,,,,,,,
Mo$_{2}$(PO$_{4}$)$_{3}$,1.0505,eV,,,,,,,
ZrGeTe,0.0,eV,,,,,,,
LiMo$_{2}$P$_{3}$O$_{13}$,2.1231,eV,,,,,,,
LiMo$_{2}$(PO$_{4}$)$_{3}$,0.8795000000000002,eV,,,,,,,
MoP$_{2}$O$_{7}$,1.3232,eV,,,,,,,
Mo$_{3}$(PO$_{4}$)$_{4}$,0.9224000000000003,eV,,,,,,,
LiMoP$_{2}$O$_{7}$,3.9111000000000002,eV,,,,,,,
LiMoP$_{4}$O$_{13}$,0.9624999999999999,eV,,,,,,,
Mo$_{3}$(PO$_{4}$)$_{4}$,1.1783,eV,,,,,,,
LiMoPO$_{5}$,1.2408,eV,,,,,,,
Mo$_{2}$(PO$_{4}$)$_{3}$,1.1487000000000003,eV,,,,,,,
Zn$_{3}$Mo$_{2}$O$_{9}$,3.0797,eV,,,,,,,
TlMo$_{6}$O$_{17}$,0.0,eV,,,,,,,
LiMo(PO$_{3}$)$_{4}$,4.4784,eV,,,,,,,
Li$_{3}$Mo$_{2}$(PO$_{4}$)$_{3}$,3.9179000000000004,eV,,,,,,,
Mo$_{4}$P$_{7}$O$_{24}$,0.8672000000000002,eV,,,,,,,
RhPb$_{2}$,0.0,eV,,,,,,,
Ca(CoP)$_{2}$,0.0,eV,,,,,,,
Li$_{3}$Mo(PO$_{4}$)$_{2}$,3.9388,eV,,,,,,,
LiMo$_{2}$P$_{2}$O$_{11}$,1.0137999999999998,eV,,,,,,,
LiMo$_{2}$(PO$_{4}$)$_{3}$,1.009,eV,,,,,,,
LiMoP$_{2}$O$_{7}$,4.0204,eV,,,,,,,
LiMoPO$_{5}$,0.0,eV,,,,,,,
Li$_{3}$Mo$_{2}$(PO$_{4}$)$_{3}$,3.984,eV,,,,,,,
Mo$_{2}$P$_{3}$O$_{11}$,1.1864999999999999,eV,,,,,,,
Nd$_{2}$SO$_{2}$,2.8645,eV,,,,,,,
Li$_{3}$Mo$_{2}$(PO$_{4}$)$_{3}$,4.1202000000000005,eV,,,,,,,
LiMo$_{2}$P$_{3}$O$_{13}$,2.3554,eV,,,,,,,
Mo$_{2}$P$_{3}$O$_{13}$,1.1507,eV,,,,,,,
MoP$_{4}$O$_{13}$,1.5402,eV,,,,,,,
Mo(PO$_{3}$)$_{4}$,1.8064,eV,,,,,,,
LiMo$_{2}$(PO$_{4}$)$_{3}$,0.6742999999999999,eV,,,,,,,
Mo(PO$_{4}$)$_{2}$,1.9851999999999999,eV,,,,,,,
Mo$_{3}$(PO$_{4}$)$_{4}$,1.6307999999999998,eV,,,,,,,
LiMo$_{2}$PO$_{8}$,1.1496,eV,,,,,,,
Mo$_{2}$PO$_{8}$,0.0,eV,,,,,,,
LiMo$_{2}$P$_{3}$O$_{13}$,2.2714,eV,,,,,,,
LaMnSi$_{2}$,0.0,eV,,,,,,,
Hg$_{2}$Mo$_{2}$O$_{7}$,2.2203,eV,,,,,,,
Li$_{2}$ZrN$_{2}$,1.5808,eV,,,,,,,
USeO,0.0,eV,,,,,,,
Er(SiPd)$_{2}$,0.0,eV,,,,,,,
EuPO$_{4}$,0.0,eV,,,,,,,
TlS,0.7034000000000002,eV,,,,,,,
La$_{3}$RuO$_{7}$,0.0,eV,,,,,,,
ThB$_{2}$Ru$_{3}$,0.0,eV,,,,,,,
HgSO$_{4}$,1.7373,eV,,,,,,,
LaF$_{3}$,4.8107999999999995,eV,,,,,,,
Ba$_{2}$ReNiO$_{6}$,0.0,eV,,,,,,,
Sr$_{2}$ReNiO$_{6}$,0.004999999999999893,eV,,,,,,,
Ta$_{2}$NiO$_{6}$,2.7613000000000003,eV,,,,,,,
Sr$_{4}$Re$_{2}$NiO$_{12}$,1.866,eV,,,,,,,
Ba$_{3}$Ta$_{2}$NiO$_{9}$,3.3673,eV,,,,,,,
Re$_{2}$NiO$_{8}$,3.8913,eV,,,,,,,
Re$_{2}$Ni(H$_{2}$O$_{3}$)$_{4}$,3.6943,eV,,,,,,,
LiNiP$_{2}$O$_{7}$,0.0262,eV,,,,,,,
Li$_{2}$Ni(PO$_{3}$)$_{4}$,4.6675,eV,,,,,,,
Li$_{2}$NiGe$_{3}$O$_{8}$,3.0431,eV,,,,,,,
Na$_{5}$NiO$_{4}$,1.9118000000000002,eV,,,,,,,
Li$_{4}$Ni(PO$_{4}$)$_{2}$,3.5201999999999996,eV,,,,,,,
LiNiP$_{2}$O$_{7}$,0.018100000000000005,eV,,,,,,,
LiNi(PO$_{3}$)$_{3}$,4.8999,eV,,,,,,,
LiNiPO$_{4}$,3.409,eV,,,,,,,
LiNiPO$_{4}$,3.5102999999999995,eV,,,,,,,
Ni(PO$_{3}$)$_{3}$,0.0,eV,,,,,,,
Ni$_{5}$(PO$_{4}$)$_{4}$,0.0,eV,,,,,,,
NiP$_{2}$O$_{7}$,0.00550000000000006,eV,,,,,,,
LiNi$_{4}$(PO$_{4}$)$_{3}$,3.6545,eV,,,,,,,
NiP$_{2}$O$_{7}$,0.06180000000000002,eV,,,,,,,
LiNi$_{2}$(PO$_{4}$)$_{3}$,0.0,eV,,,,,,,
LiNiP$_{2}$O$_{7}$,0.0026999999999999247,eV,,,,,,,
K$_{3}$(NiO$_{2}$)$_{2}$,1.3664000000000003,eV,,,,,,,
EuNiO$_{3}$,0.0,eV,,,,,,,
Ba$_{3}$NiO$_{4}$,2.29,eV,,,,,,,
Ni(PO$_{3}$)$_{4}$,0.4455,eV,,,,,,,
LiNiPO$_{4}$,3.4526999999999997,eV,,,,,,,
LiNi(PO$_{3}$)$_{4}$,0.9354,eV,,,,,,,
LiNi$_{2}$P$_{5}$O$_{16}$,0.37259999999999993,eV,,,,,,,
Ni$_{5}$(P$_{3}$O$_{11}$)$_{2}$,0,eV,,,,,,,
Pr$_{2}$SO$_{2}$,2.8586000000000005,eV,,,,,,,
NiP$_{2}$O$_{7}$,0.0,eV,,,,,,,
Ni(PO$_{3}$)$_{4}$,0.0,eV,,,,,,,
Li$_{3}$Ni$_{2}$(PO$_{4}$)$_{3}$,0.0,eV,,,,,,,
Ni$_{2}$P$_{3}$O$_{11}$,0.0,eV,,,,,,,
Na$_{2}$CuF$_{4}$,0.8944999999999999,eV,,,,,,,
Li$_{3}$Ni(PO$_{4}$)$_{2}$,0.6779,eV,,,,,,,
Li$_{2}$Ni$_{3}$(P$_{2}$O$_{7}$)$_{2}$,4.0405,eV,,,,,,,
LiNiP$_{2}$O$_{7}$,0,eV,,,,,,,
Li$_{3}$Ni$_{2}$P$_{5}$O$_{16}$,4.314,eV,,,,,,,
LiNi(PO$_{3}$)$_{3}$,4.4977,eV,,,,,,,
Li$_{3}$Ni$_{3}$(PO$_{4}$)$_{4}$,0.0,eV,,,,,,,
LiNi(PO$_{3}$)$_{3}$,4.7448,eV,,,,,,,
V$_{2}$NiO$_{6}$,2.1115000000000004,eV,,,,,,,
Li$_{2}$NiP$_{2}$O$_{7}$,4.116,eV,,,,,,,
Li$_{4}$Ni$_{7}$(PO$_{4}$)$_{6}$,3.512,eV,,,,,,,
Ni$_{7}$(PO$_{4}$)$_{6}$,0,eV,,,,,,,
Ni$_{3}$(PO$_{4}$)$_{4}$,0.047599999999999996,eV,,,,,,,
LiNi$_{2}$P$_{3}$O$_{11}$,0.0,eV,,,,,,,
Er(CoSi)$_{2}$,0.0,eV,,,,,,,
Ni$_{2}$P$_{5}$O$_{16}$,0.02250000000000002,eV,,,,,,,
Ni$_{3}$(P$_{2}$O$_{7}$)$_{2}$,0.0,eV,,,,,,,
Li$_{2}$Ni$_{3}$(P$_{2}$O$_{7}$)$_{2}$,3.7280999999999995,eV,,,,,,,
LiNiP$_{2}$O$_{7}$,0.006099999999999994,eV,,,,,,,
Li$_{3}$Ni(PO$_{4}$)$_{2}$,0,eV,,,,,,,
LiNi(PO$_{3}$)$_{3}$,4.5463000000000005,eV,,,,,,,
NiP$_{2}$O$_{7}$,0.1238,eV,,,,,,,
Ni(HO)$_{2}$,3.1318,eV,,,,,,,
Ta$_{2}$VO$_{6}$,0.8707000000000003,eV,,,,,,,
LiVP$_{2}$O$_{7}$,1.8731,eV,,,,,,,
Ta$_{9}$VO$_{25}$,2.6133,eV,,,,,,,
TaVO$_{5}$,2.1719999999999997,eV,,,,,,,
LiVP$_{2}$O$_{7}$,2.0835,eV,,,,,,,
LiVPO$_{5}$,1.4998,eV,,,,,,,
Sr(CuGe)$_{2}$,0.0,eV,,,,,,,
V$_{2}$P$_{5}$O$_{16}$,0.2027000000000001,eV,,,,,,,
LiVP$_{2}$O$_{7}$,2.1189999999999998,eV,,,,,,,
KV$_{4}$O$_{8}$,0.0026000000000001577,eV,,,,,,,
VP$_{2}$O$_{7}$,1.4092000000000002,eV,,,,,,,
V$_{3}$(P$_{2}$O$_{7}$)$_{2}$,0.0,eV,,,,,,,
VP$_{2}$O$_{7}$,1.2897,eV,,,,,,,
LiV$_{2}$(PO$_{4}$)$_{3}$,1.3014000000000001,eV,,,,,,,
Li$_{2}$VP$_{2}$O$_{7}$,2.9763,eV,,,,,,,
LiV(PO$_{4}$)$_{2}$,1.0805,eV,,,,,,,
V$_{6}$P$_{7}$O$_{24}$,0.002400000000000624,eV,,,,,,,
Li$_{2}$V(PO$_{4}$)$_{2}$,0.0,eV,,,,,,,
LiVPO$_{4}$,2.6021,eV,,,,,,,
LiVPO$_{5}$,1.5636,eV,,,,,,,
LiVPO$_{5}$,2.3464,eV,,,,,,,
LiVPO$_{5}$,2.47,eV,,,,,,,
LiV$_{2}$P$_{3}$O$_{10}$,2.4879,eV,,,,,,,
Mg$_{2}$VO$_{4}$,0.0,eV,,,,,,,
V(PO$_{3}$)$_{5}$,0.0,eV,,,,,,,
Ca$_{2}$V$_{2}$O$_{7}$,3.0528,eV,,,,,,,
Li$_{2}$V$_{3}$(P$_{2}$O$_{7}$)$_{2}$,2.6931000000000003,eV,,,,,,,
LiV$_{2}$(PO$_{4}$)$_{3}$,1.2195,eV,,,,,,,
LiV$_{3}$(P$_{3}$O$_{10}$)$_{2}$,1.6893999999999998,eV,,,,,,,
VP$_{2}$O$_{7}$,1.4377000000000002,eV,,,,,,,
V(PO$_{3}$)$_{3}$,2.2453,eV,,,,,,,
V$_{4}$As$_{2}$O$_{13}$,1.4928,eV,,,,,,,
VH$_{2}$O$_{3}$,1.8135999999999999,eV,,,,,,,
SnP$_{7}$Au$_{3}$,0.028100000000000236,eV,,,,,,,
VBr$_{2}$O,0.733,eV,,,,,,,
VPO$_{4}$,1.6267999999999998,eV,,,,,,,
VP$_{2}$O$_{7}$,1.3846000000000003,eV,,,,,,,
Li$_{3}$V(PO$_{4}$)$_{2}$,2.0699000000000005,eV,,,,,,,
V(PO$_{3}$)$_{4}$,1.5069,eV,,,,,,,
Li$_{3}$V$_{3}$(PO$_{4}$)$_{4}$,1.8451999999999997,eV,,,,,,,
LiV$_{3}$(P$_{3}$O$_{10}$)$_{2}$,2.0385999999999997,eV,,,,,,,
LiV(PO$_{4}$)$_{2}$,1.9609999999999999,eV,,,,,,,
VP$_{2}$O$_{7}$,1.3225000000000002,eV,,,,,,,
LiVP$_{4}$O$_{13}$,0.9416,eV,,,,,,,
V$_{2}$(PO$_{4}$)$_{3}$,0.0,eV,,,,,,,
Cs$_{2}$TiS$_{3}$,1.2717,eV,,,,,,,
LiV(PO$_{4}$)$_{2}$,1.3487,eV,,,,,,,
LiV(PO$_{4}$)$_{2}$,0.8379000000000001,eV,,,,,,,
LiVP$_{2}$O$_{7}$,2.0207,eV,,,,,,,
VP$_{2}$O$_{7}$,1.5248,eV,,,,,,,
LiV$_{2}$(PO$_{4}$)$_{3}$,1.1028,eV,,,,,,,
Tl$_{3}$VO$_{4}$,2.5950999999999995,eV,,,,,,,
TbAsO$_{4}$,3.6466000000000003,eV,,,,,,,
LaV$_{3}$O$_{9}$,2.5700000000000003,eV,,,,,,,
VTeO$_{4}$,1.5000999999999998,eV,,,,,,,
LiV(PO$_{3}$)$_{3}$,2.7512999999999996,eV,,,,,,,
V$_{3}$(PO$_{4}$)$_{4}$,1.1631999999999998,eV,,,,,,,
VPO$_{5}$,1.8954,eV,,,,,,,